 vasp.6.2.0 18Jan21 (build Jun 21 2021 17:29:26) complex                        
  
 executed on    LinuxIFC_2020xeU1 date 2026.07.01  18:34:31
 running on    6 total cores
 distrk:  each k-point on    6 cores,    1 groups
 distr:  one band on NCORE=   1 cores,    6 groups


--------------------------------------------------------------------------------------------------------


 INCAR:
   SYSTEM = CoGe B20 Band Structure
   PREC = Accurate
   ENCUT = 600
   EDIFF = 1E-8
   ALGO = Normal
   NELM = 120
   ISMEAR = 0
   SIGMA = 0.05
   LSORBIT = .TRUE.
   MAGMOM = 24*0.0
   LMAXMIX = 4
   ICHARG = 11
   LWAVE = .FALSE
   LCHARG = .FALSE.
   LORBIT = 11

 POTCAR:    PAW_PBE Co 02Aug2007                  
 POTCAR:    PAW_PBE Ge 05Jan2001                  
 -----------------------------------------------------------------------------
|                                                                             |
|           W    W    AA    RRRRR   N    N  II  N    N   GGGG   !!!           |
|           W    W   A  A   R    R  NN   N  II  NN   N  G    G  !!!           |
|           W    W  A    A  R    R  N N  N  II  N N  N  G       !!!           |
|           W WW W  AAAAAA  RRRRR   N  N N  II  N  N N  G  GGG   !            |
|           WW  WW  A    A  R   R   N   NN  II  N   NN  G    G                |
|           W    W  A    A  R    R  N    N  II  N    N   GGGG   !!!           |
|                                                                             |
|     For optimal performance we recommend to set                             |
|       NCORE = 2 up to number-of-cores-per-socket                            |
|     NCORE specifies how many cores store one orbital (NPAR=cpu/NCORE).      |
|     This setting can greatly improve the performance of VASP for DFT.       |
|     The default, NCORE=1 might be grossly inefficient on modern             |
|     multi-core architectures or massively parallel machines. Do your        |
|     own testing! More info at https://www.vasp.at/wiki/index.php/NCORE      |
|     Unfortunately you need to use the default for GW and RPA                |
|     calculations (for HF NCORE is supported but not extensively tested      |
|     yet).                                                                   |
|                                                                             |
 -----------------------------------------------------------------------------

 POTCAR:    PAW_PBE Co 02Aug2007                  
   SHA256 =  0e690c60710354995174544f52f9f2c30879afabeffe3b3fbd4001cb294e56d4 Co/POTCAR             
   COPYR  = (c) Copyright 02Aug2007 Georg Kresse                                                    
   COPYR  = This file is part of the software VASP. Any use, copying, and all other rights are regul
   COPYR  = If you do not have a valid VASP license, you may not use, copy or distribute this file. 
   VRHFIN =Co: d8 s1                                                                                
   LEXCH  = PE                                                                                      
   EATOM  =   813.3670 eV,   59.7808 Ry                                                             
                                                                                                    
   TITEL  = PAW_PBE Co 02Aug2007                                                                    
   LULTRA =        F    use ultrasoft PP ?                                                          
   IUNSCR =        1    unscreen: 0-lin 1-nonlin 2-no                                               
   RPACOR =    2.000    partial core radius                                                         
   POMASS =   58.933; ZVAL   =    9.000    mass and valenz                                          
   RCORE  =    2.300    outmost cutoff radius                                                       
   RWIGS  =    2.460; RWIGS  =    1.302    wigner-seitz radius (au A)                               
   ENMAX  =  267.968; ENMIN  =  200.976 eV                                                          
   RCLOC  =    1.203    cutoff for local pot                                                        
   LCOR   =        T    correct aug charges                                                         
   LPAW   =        T    paw PP                                                                      
   EAUG   =  477.818                                                                                
   DEXC   =    0.000                                                                                
   RMAX   =    2.360    core radius for proj-oper                                                   
   RAUG   =    1.300    factor for augmentation sphere                                              
   RDEP   =    2.393    radius for radial grids                                                     
   RDEPT  =    1.864    core radius for aug-charge                                                  
                                                                                                    
   Atomic configuration                                                                             
    9 entries                                                                                       
     n  l   j            E        occ.                                                              
     1  0  0.50     -7587.6674   2.0000                                                             
     2  0  0.50      -893.6084   2.0000                                                             
     2  1  1.50      -764.5805   6.0000                                                             
     3  0  0.50       -97.5973   2.0000                                                             
     3  1  1.50       -60.9648   6.0000                                                             
     3  2  2.50        -4.2382   8.0000                                                             
     4  0  0.50        -4.3746   1.0000                                                             
     4  1  1.50        -4.0817   0.0000                                                             
     4  3  2.50        -1.3606   0.0000                                                             
   Description                                                                                      
     l       E           TYP  RCUT    TYP  RCUT                                                     
     2     -4.2382362     23  2.300                                                                 
     2     -5.5988188     23  2.300                                                                 
     0     -4.3745797     23  2.300                                                                 
     0      5.7660125     23  2.300                                                                 
     1     -2.7211652     23  2.300                                                                 
     1     16.9860234     23  2.300                                                                 
  local pseudopotential read in
  partial core-charges read in
  partial kinetic energy density read in
  atomic valenz-charges read in
  non local Contribution for L=           2  read in
    real space projection operators read in
  non local Contribution for L=           2  read in
    real space projection operators read in
  non local Contribution for L=           0  read in
    real space projection operators read in
  non local Contribution for L=           0  read in
    real space projection operators read in
  non local Contribution for L=           1  read in
    real space projection operators read in
  non local Contribution for L=           1  read in
    real space projection operators read in
    PAW grid and wavefunctions read in
 
   number of l-projection  operators is LMAX  =           6
   number of lm-projection operators is LMMAX =          18
 
 POTCAR:    PAW_PBE Ge 05Jan2001                  
   SHA256 =  7ff11deedcda39f1950abeda971a84a1f98a719a97bc9679a0df455c008734f8 Ge/POTCAR             
   COPYR  = (c) Copyright 05Jan2001 Georg Kresse                                                    
   COPYR  = This file is part of the software VASP. Any use, copying, and all other rights are regul
   COPYR  = If you do not have a valid VASP license, you may not use, copy or distribute this file. 
   VRHFIN =Ge: s2p2                                                                                 
   LEXCH  = PE                                                                                      
   EATOM  =   104.9960 eV,    7.7170 Ry                                                             
                                                                                                    
   TITEL  = PAW_PBE Ge 05Jan2001                                                                    
   LULTRA =        F    use ultrasoft PP ?                                                          
   IUNSCR =        1    unscreen: 0-lin 1-nonlin 2-no                                               
   RPACOR =    2.170    partial core radius                                                         
   POMASS =   72.610; ZVAL   =    4.000    mass and valenz                                          
   RCORE  =    2.300    outmost cutoff radius                                                       
   RWIGS  =    2.300; RWIGS  =    1.217    wigner-seitz radius (au A)                               
   ENMAX  =  173.807; ENMIN  =  130.355 eV                                                          
   ICORE  =        3    local potential                                                             
   LCOR   =        T    correct aug charges                                                         
   LPAW   =        T    paw PP                                                                      
   EAUG   =  385.843                                                                                
   DEXC   =    0.000                                                                                
   RMAX   =    2.342    core radius for proj-oper                                                   
   RAUG   =    1.300    factor for augmentation sphere                                              
   RDEP   =    2.318    radius for radial grids                                                     
   RDEPT  =    2.103    core radius for aug-charge                                                  
                                                                                                    
   Atomic configuration                                                                             
   10 entries                                                                                       
     n  l   j            E        occ.                                                              
     1  0  0.50    -10959.8463   2.0000                                                             
     2  0  0.50     -1371.6056   2.0000                                                             
     2  1  1.50     -1198.4791   6.0000                                                             
     3  0  0.50      -168.4733   2.0000                                                             
     3  1  1.50      -115.6019   6.0000                                                             
     3  2  2.50       -29.3106  10.0000                                                             
     4  0  0.50       -11.7309   2.0000                                                             
     4  1  0.50        -3.8952   2.0000                                                             
     4  2  1.50        -4.0817   0.0000                                                             
     4  3  2.50        -4.0817   0.0000                                                             
   Description                                                                                      
     l       E           TYP  RCUT    TYP  RCUT                                                     
     0    -11.7309493     23  2.300                                                                 
     0     -7.4578696     23  2.300                                                                 
     1     -3.8952261     23  2.300                                                                 
     1      6.1178114     23  2.300                                                                 
     2     -4.0817478     23  2.300                                                                 
     3     -1.3605826      7  2.300                                                                 
  local pseudopotential read in
  partial core-charges read in
  partial kinetic energy density read in
  atomic valenz-charges read in
  non local Contribution for L=           0  read in
    real space projection operators read in
  non local Contribution for L=           0  read in
    real space projection operators read in
  non local Contribution for L=           1  read in
    real space projection operators read in
  non local Contribution for L=           1  read in
    real space projection operators read in
  non local Contribution for L=           2  read in
    real space projection operators read in
    PAW grid and wavefunctions read in
 
   number of l-projection  operators is LMAX  =           5
   number of lm-projection operators is LMMAX =          13
 
  PAW_PBE Co 02Aug2007                  :
 energy of atom  1       EATOM= -813.3670
 kinetic energy error for atom=    0.0018 (will be added to EATOM!!)
  PAW_PBE Ge 05Jan2001                  :
 energy of atom  2       EATOM= -104.9960
 kinetic energy error for atom=    0.0001 (will be added to EATOM!!)
 
 
 POSCAR: CoGe
  positions in direct lattice
  No initial velocities read in
 exchange correlation table for  LEXCH =        8
   RHO(1)=    0.500       N(1)  =     2000
   RHO(2)=  100.500       N(2)  =     4000
 


--------------------------------------------------------------------------------------------------------


 ion  position               nearest neighbor table
   1  0.140  0.140  0.140-   5 2.40   6 2.41   7 2.41   8 2.41   6 2.58   7 2.58   8 2.58   3 2.84
                             4 2.84   2 2.84   4 2.84   3 2.84   2 2.84
   2  0.640  0.360  0.860-   6 2.40   5 2.41   7 2.41   8 2.41   7 2.58   8 2.58   5 2.58   1 2.84
                             3 2.84   3 2.84   4 2.84   4 2.84   1 2.84
   3  0.860  0.640  0.360-   7 2.40   6 2.41   5 2.41   8 2.41   8 2.58   5 2.58   6 2.58   1 2.84
                             2 2.84   2 2.84   1 2.84   4 2.84   4 2.84
   4  0.360  0.860  0.640-   8 2.40   6 2.41   7 2.41   5 2.41   6 2.58   7 2.58   5 2.58   1 2.84
                             1 2.84   2 2.84   2 2.84   3 2.84   3 2.84
   5  0.841  0.841  0.841-   1 2.40   2 2.41   3 2.41   4 2.41   2 2.58   3 2.58   4 2.58   6 2.87
                             7 2.87   8 2.87   8 2.87   7 2.87   6 2.87
   6  0.341  0.659  0.159-   2 2.40   1 2.41   3 2.41   4 2.41   3 2.58   4 2.58   1 2.58   8 2.87
                             5 2.87   7 2.87   7 2.87   8 2.87   5 2.87
   7  0.159  0.341  0.659-   3 2.40   2 2.41   1 2.41   4 2.41   4 2.58   1 2.58   2 2.58   8 2.87
                             5 2.87   6 2.87   5 2.87   6 2.87   8 2.87
   8  0.659  0.159  0.341-   4 2.40   2 2.41   3 2.41   1 2.41   2 2.58   3 2.58   1 2.58   7 2.87
                             5 2.87   5 2.87   6 2.87   6 2.87   7 2.87
 
  LATTYP: Found a simple cubic cell.
 ALAT       =     4.6294498444
  
  Lattice vectors:
  
 A1 = (   4.6294498444,   0.0000000000,   0.0000000000)
 A2 = (   0.0000000000,   4.6294498444,   0.0000000000)
 A3 = (   0.0000000000,   0.0000000000,   4.6294498444)


Analysis of symmetry for initial positions (statically):
=====================================================================
 Subroutine PRICEL returns:
 Original cell was already a primitive cell.
 

 Routine SETGRP: Setting up the symmetry group for a 
 simple cubic supercell.


 Subroutine GETGRP returns: Found 12 space group operations
 (whereof  3 operations were pure point group operations)
 out of a pool of 48 trial point group operations.


The static configuration has the point symmetry C_3 .
 The point group associated with its full space group is T   .


Analysis of symmetry for dynamics (positions and initial velocities):
=====================================================================
 Subroutine PRICEL returns:
 Original cell was already a primitive cell.
 

 Routine SETGRP: Setting up the symmetry group for a 
 simple cubic supercell.


 Subroutine GETGRP returns: Found 12 space group operations
 (whereof  3 operations were pure point group operations)
 out of a pool of 48 trial point group operations.


The dynamic configuration has the point symmetry C_3 .
 The point group associated with its full space group is T   .


Analysis of structural, dynamic, and magnetic symmetry:
=====================================================================
 Subroutine PRICEL returns:
 Original cell was already a primitive cell.
 

 Routine SETGRP: Setting up the symmetry group for a 
 simple cubic supercell.


 Subroutine GETGRP returns: Found 12 space group operations
 (whereof  3 operations were pure point group operations)
 out of a pool of 48 trial point group operations.


The overall configuration has the point symmetry C_3 .
 The point group associated with its full space group is T   .


 Subroutine INISYM returns: Found 12 space group operations
 (whereof  3 operations are pure point group operations),
 and found     1 'primitive' translations


----------------------------------------------------------------------------------------

                                     Primitive cell                                     

  volume of cell :      99.2175

  direct lattice vectors                    reciprocal lattice vectors
     4.629449844  0.000000000  0.000000000     0.216008388  0.000000000  0.000000000
     0.000000000  4.629449844  0.000000000     0.000000000  0.216008388  0.000000000
     0.000000000  0.000000000  4.629449844     0.000000000  0.000000000  0.216008388

  length of vectors
     4.629449844  4.629449844  4.629449844     0.216008388  0.216008388  0.216008388

  position of ions in fractional coordinates (direct lattice)
     0.140000000  0.140000000  0.140000000
     0.640000000  0.360000000  0.860000000
     0.860000000  0.640000000  0.360000000
     0.360000000  0.860000000  0.640000000
     0.841000000  0.841000000  0.841000000
     0.341000000  0.659000000  0.159000000
     0.159000000  0.341000000  0.659000000
     0.659000000  0.159000000  0.341000000

  ion indices of the primitive-cell ions
   primitive index   ion index
                 1           1
                 2           2
                 3           3
                 4           4
                 5           5
                 6           6
                 7           7
                 8           8

----------------------------------------------------------------------------------------

 
 
 KPOINTS: K-Path for pristine bulk CoGe           

Interpolating k-points between supplied coordinates.

 Line segments in fractional coordinates (reciprocal lattice):
    0.000000  0.000000  0.000000  ...  0.500000  0.000000  0.000000
    0.500000  0.000000  0.000000  ...  0.500000  0.500000  0.000000
    0.500000  0.500000  0.000000  ...  0.000000  0.000000  0.000000
    0.000000  0.000000  0.000000  ...  0.500000  0.500000  0.500000
    0.500000  0.500000  0.500000  ...  0.500000  0.000000  0.000000
    0.500000  0.500000  0.000000  ...  0.500000  0.500000  0.500000

 Generated    60 points on each line segment, for a total of    360 k-points:

 Following reciprocal coordinates:
            Coordinates               Weight
  0.000000  0.000000  0.000000      0.002778
  0.008475  0.000000  0.000000      0.002778
  0.016949  0.000000  0.000000      0.002778
  0.025424  0.000000  0.000000      0.002778
  0.033898  0.000000  0.000000      0.002778
  0.042373  0.000000  0.000000      0.002778
  0.050847  0.000000  0.000000      0.002778
  0.059322  0.000000  0.000000      0.002778
  0.067797  0.000000  0.000000      0.002778
  0.076271  0.000000  0.000000      0.002778
  0.084746  0.000000  0.000000      0.002778
  0.093220  0.000000  0.000000      0.002778
  0.101695  0.000000  0.000000      0.002778
  0.110169  0.000000  0.000000      0.002778
  0.118644  0.000000  0.000000      0.002778
  0.127119  0.000000  0.000000      0.002778
  0.135593  0.000000  0.000000      0.002778
  0.144068  0.000000  0.000000      0.002778
  0.152542  0.000000  0.000000      0.002778
  0.161017  0.000000  0.000000      0.002778
  0.169492  0.000000  0.000000      0.002778
  0.177966  0.000000  0.000000      0.002778
  0.186441  0.000000  0.000000      0.002778
  0.194915  0.000000  0.000000      0.002778
  0.203390  0.000000  0.000000      0.002778
  0.211864  0.000000  0.000000      0.002778
  0.220339  0.000000  0.000000      0.002778
  0.228814  0.000000  0.000000      0.002778
  0.237288  0.000000  0.000000      0.002778
  0.245763  0.000000  0.000000      0.002778
  0.254237  0.000000  0.000000      0.002778
  0.262712  0.000000  0.000000      0.002778
  0.271186  0.000000  0.000000      0.002778
  0.279661  0.000000  0.000000      0.002778
  0.288136  0.000000  0.000000      0.002778
  0.296610  0.000000  0.000000      0.002778
  0.305085  0.000000  0.000000      0.002778
  0.313559  0.000000  0.000000      0.002778
  0.322034  0.000000  0.000000      0.002778
  0.330508  0.000000  0.000000      0.002778
  0.338983  0.000000  0.000000      0.002778
  0.347458  0.000000  0.000000      0.002778
  0.355932  0.000000  0.000000      0.002778
  0.364407  0.000000  0.000000      0.002778
  0.372881  0.000000  0.000000      0.002778
  0.381356  0.000000  0.000000      0.002778
  0.389831  0.000000  0.000000      0.002778
  0.398305  0.000000  0.000000      0.002778
  0.406780  0.000000  0.000000      0.002778
  0.415254  0.000000  0.000000      0.002778
  0.423729  0.000000  0.000000      0.002778
  0.432203  0.000000  0.000000      0.002778
  0.440678  0.000000  0.000000      0.002778
  0.449153  0.000000  0.000000      0.002778
  0.457627  0.000000  0.000000      0.002778
  0.466102  0.000000  0.000000      0.002778
  0.474576  0.000000  0.000000      0.002778
  0.483051  0.000000  0.000000      0.002778
  0.491525  0.000000  0.000000      0.002778
  0.500000  0.000000  0.000000      0.002778
  0.500000  0.000000  0.000000      0.002778
  0.500000  0.008475  0.000000      0.002778
  0.500000  0.016949  0.000000      0.002778
  0.500000  0.025424  0.000000      0.002778
  0.500000  0.033898  0.000000      0.002778
  0.500000  0.042373  0.000000      0.002778
  0.500000  0.050847  0.000000      0.002778
  0.500000  0.059322  0.000000      0.002778
  0.500000  0.067797  0.000000      0.002778
  0.500000  0.076271  0.000000      0.002778
  0.500000  0.084746  0.000000      0.002778
  0.500000  0.093220  0.000000      0.002778
  0.500000  0.101695  0.000000      0.002778
  0.500000  0.110169  0.000000      0.002778
  0.500000  0.118644  0.000000      0.002778
  0.500000  0.127119  0.000000      0.002778
  0.500000  0.135593  0.000000      0.002778
  0.500000  0.144068  0.000000      0.002778
  0.500000  0.152542  0.000000      0.002778
  0.500000  0.161017  0.000000      0.002778
  0.500000  0.169492  0.000000      0.002778
  0.500000  0.177966  0.000000      0.002778
  0.500000  0.186441  0.000000      0.002778
  0.500000  0.194915  0.000000      0.002778
  0.500000  0.203390  0.000000      0.002778
  0.500000  0.211864  0.000000      0.002778
  0.500000  0.220339  0.000000      0.002778
  0.500000  0.228814  0.000000      0.002778
  0.500000  0.237288  0.000000      0.002778
  0.500000  0.245763  0.000000      0.002778
  0.500000  0.254237  0.000000      0.002778
  0.500000  0.262712  0.000000      0.002778
  0.500000  0.271186  0.000000      0.002778
  0.500000  0.279661  0.000000      0.002778
  0.500000  0.288136  0.000000      0.002778
  0.500000  0.296610  0.000000      0.002778
  0.500000  0.305085  0.000000      0.002778
  0.500000  0.313559  0.000000      0.002778
  0.500000  0.322034  0.000000      0.002778
  0.500000  0.330508  0.000000      0.002778
  0.500000  0.338983  0.000000      0.002778
  0.500000  0.347458  0.000000      0.002778
  0.500000  0.355932  0.000000      0.002778
  0.500000  0.364407  0.000000      0.002778
  0.500000  0.372881  0.000000      0.002778
  0.500000  0.381356  0.000000      0.002778
  0.500000  0.389831  0.000000      0.002778
  0.500000  0.398305  0.000000      0.002778
  0.500000  0.406780  0.000000      0.002778
  0.500000  0.415254  0.000000      0.002778
  0.500000  0.423729  0.000000      0.002778
  0.500000  0.432203  0.000000      0.002778
  0.500000  0.440678  0.000000      0.002778
  0.500000  0.449153  0.000000      0.002778
  0.500000  0.457627  0.000000      0.002778
  0.500000  0.466102  0.000000      0.002778
  0.500000  0.474576  0.000000      0.002778
  0.500000  0.483051  0.000000      0.002778
  0.500000  0.491525  0.000000      0.002778
  0.500000  0.500000  0.000000      0.002778
  0.500000  0.500000  0.000000      0.002778
  0.491525  0.491525  0.000000      0.002778
  0.483051  0.483051  0.000000      0.002778
  0.474576  0.474576  0.000000      0.002778
  0.466102  0.466102  0.000000      0.002778
  0.457627  0.457627  0.000000      0.002778
  0.449153  0.449153  0.000000      0.002778
  0.440678  0.440678  0.000000      0.002778
  0.432203  0.432203  0.000000      0.002778
  0.423729  0.423729  0.000000      0.002778
  0.415254  0.415254  0.000000      0.002778
  0.406780  0.406780  0.000000      0.002778
  0.398305  0.398305  0.000000      0.002778
  0.389831  0.389831  0.000000      0.002778
  0.381356  0.381356  0.000000      0.002778
  0.372881  0.372881  0.000000      0.002778
  0.364407  0.364407  0.000000      0.002778
  0.355932  0.355932  0.000000      0.002778
  0.347458  0.347458  0.000000      0.002778
  0.338983  0.338983  0.000000      0.002778
  0.330508  0.330508  0.000000      0.002778
  0.322034  0.322034  0.000000      0.002778
  0.313559  0.313559  0.000000      0.002778
  0.305085  0.305085  0.000000      0.002778
  0.296610  0.296610  0.000000      0.002778
  0.288136  0.288136  0.000000      0.002778
  0.279661  0.279661  0.000000      0.002778
  0.271186  0.271186  0.000000      0.002778
  0.262712  0.262712  0.000000      0.002778
  0.254237  0.254237  0.000000      0.002778
  0.245763  0.245763  0.000000      0.002778
  0.237288  0.237288  0.000000      0.002778
  0.228814  0.228814  0.000000      0.002778
  0.220339  0.220339  0.000000      0.002778
  0.211864  0.211864  0.000000      0.002778
  0.203390  0.203390  0.000000      0.002778
  0.194915  0.194915  0.000000      0.002778
  0.186441  0.186441  0.000000      0.002778
  0.177966  0.177966  0.000000      0.002778
  0.169492  0.169492  0.000000      0.002778
  0.161017  0.161017  0.000000      0.002778
  0.152542  0.152542  0.000000      0.002778
  0.144068  0.144068  0.000000      0.002778
  0.135593  0.135593  0.000000      0.002778
  0.127119  0.127119  0.000000      0.002778
  0.118644  0.118644  0.000000      0.002778
  0.110169  0.110169  0.000000      0.002778
  0.101695  0.101695  0.000000      0.002778
  0.093220  0.093220  0.000000      0.002778
  0.084746  0.084746  0.000000      0.002778
  0.076271  0.076271  0.000000      0.002778
  0.067797  0.067797  0.000000      0.002778
  0.059322  0.059322  0.000000      0.002778
  0.050847  0.050847  0.000000      0.002778
  0.042373  0.042373  0.000000      0.002778
  0.033898  0.033898  0.000000      0.002778
  0.025424  0.025424  0.000000      0.002778
  0.016949  0.016949  0.000000      0.002778
  0.008475  0.008475  0.000000      0.002778
  0.000000  0.000000  0.000000      0.002778
  0.000000  0.000000  0.000000      0.002778
  0.008475  0.008475  0.008475      0.002778
  0.016949  0.016949  0.016949      0.002778
  0.025424  0.025424  0.025424      0.002778
  0.033898  0.033898  0.033898      0.002778
  0.042373  0.042373  0.042373      0.002778
  0.050847  0.050847  0.050847      0.002778
  0.059322  0.059322  0.059322      0.002778
  0.067797  0.067797  0.067797      0.002778
  0.076271  0.076271  0.076271      0.002778
  0.084746  0.084746  0.084746      0.002778
  0.093220  0.093220  0.093220      0.002778
  0.101695  0.101695  0.101695      0.002778
  0.110169  0.110169  0.110169      0.002778
  0.118644  0.118644  0.118644      0.002778
  0.127119  0.127119  0.127119      0.002778
  0.135593  0.135593  0.135593      0.002778
  0.144068  0.144068  0.144068      0.002778
  0.152542  0.152542  0.152542      0.002778
  0.161017  0.161017  0.161017      0.002778
  0.169492  0.169492  0.169492      0.002778
  0.177966  0.177966  0.177966      0.002778
  0.186441  0.186441  0.186441      0.002778
  0.194915  0.194915  0.194915      0.002778
  0.203390  0.203390  0.203390      0.002778
  0.211864  0.211864  0.211864      0.002778
  0.220339  0.220339  0.220339      0.002778
  0.228814  0.228814  0.228814      0.002778
  0.237288  0.237288  0.237288      0.002778
  0.245763  0.245763  0.245763      0.002778
  0.254237  0.254237  0.254237      0.002778
  0.262712  0.262712  0.262712      0.002778
  0.271186  0.271186  0.271186      0.002778
  0.279661  0.279661  0.279661      0.002778
  0.288136  0.288136  0.288136      0.002778
  0.296610  0.296610  0.296610      0.002778
  0.305085  0.305085  0.305085      0.002778
  0.313559  0.313559  0.313559      0.002778
  0.322034  0.322034  0.322034      0.002778
  0.330508  0.330508  0.330508      0.002778
  0.338983  0.338983  0.338983      0.002778
  0.347458  0.347458  0.347458      0.002778
  0.355932  0.355932  0.355932      0.002778
  0.364407  0.364407  0.364407      0.002778
  0.372881  0.372881  0.372881      0.002778
  0.381356  0.381356  0.381356      0.002778
  0.389831  0.389831  0.389831      0.002778
  0.398305  0.398305  0.398305      0.002778
  0.406780  0.406780  0.406780      0.002778
  0.415254  0.415254  0.415254      0.002778
  0.423729  0.423729  0.423729      0.002778
  0.432203  0.432203  0.432203      0.002778
  0.440678  0.440678  0.440678      0.002778
  0.449153  0.449153  0.449153      0.002778
  0.457627  0.457627  0.457627      0.002778
  0.466102  0.466102  0.466102      0.002778
  0.474576  0.474576  0.474576      0.002778
  0.483051  0.483051  0.483051      0.002778
  0.491525  0.491525  0.491525      0.002778
  0.500000  0.500000  0.500000      0.002778
  0.500000  0.500000  0.500000      0.002778
  0.500000  0.491525  0.491525      0.002778
  0.500000  0.483051  0.483051      0.002778
  0.500000  0.474576  0.474576      0.002778
  0.500000  0.466102  0.466102      0.002778
  0.500000  0.457627  0.457627      0.002778
  0.500000  0.449153  0.449153      0.002778
  0.500000  0.440678  0.440678      0.002778
  0.500000  0.432203  0.432203      0.002778
  0.500000  0.423729  0.423729      0.002778
  0.500000  0.415254  0.415254      0.002778
  0.500000  0.406780  0.406780      0.002778
  0.500000  0.398305  0.398305      0.002778
  0.500000  0.389831  0.389831      0.002778
  0.500000  0.381356  0.381356      0.002778
  0.500000  0.372881  0.372881      0.002778
  0.500000  0.364407  0.364407      0.002778
  0.500000  0.355932  0.355932      0.002778
  0.500000  0.347458  0.347458      0.002778
  0.500000  0.338983  0.338983      0.002778
  0.500000  0.330508  0.330508      0.002778
  0.500000  0.322034  0.322034      0.002778
  0.500000  0.313559  0.313559      0.002778
  0.500000  0.305085  0.305085      0.002778
  0.500000  0.296610  0.296610      0.002778
  0.500000  0.288136  0.288136      0.002778
  0.500000  0.279661  0.279661      0.002778
  0.500000  0.271186  0.271186      0.002778
  0.500000  0.262712  0.262712      0.002778
  0.500000  0.254237  0.254237      0.002778
  0.500000  0.245763  0.245763      0.002778
  0.500000  0.237288  0.237288      0.002778
  0.500000  0.228814  0.228814      0.002778
  0.500000  0.220339  0.220339      0.002778
  0.500000  0.211864  0.211864      0.002778
  0.500000  0.203390  0.203390      0.002778
  0.500000  0.194915  0.194915      0.002778
  0.500000  0.186441  0.186441      0.002778
  0.500000  0.177966  0.177966      0.002778
  0.500000  0.169492  0.169492      0.002778
  0.500000  0.161017  0.161017      0.002778
  0.500000  0.152542  0.152542      0.002778
  0.500000  0.144068  0.144068      0.002778
  0.500000  0.135593  0.135593      0.002778
  0.500000  0.127119  0.127119      0.002778
  0.500000  0.118644  0.118644      0.002778
  0.500000  0.110169  0.110169      0.002778
  0.500000  0.101695  0.101695      0.002778
  0.500000  0.093220  0.093220      0.002778
  0.500000  0.084746  0.084746      0.002778
  0.500000  0.076271  0.076271      0.002778
  0.500000  0.067797  0.067797      0.002778
  0.500000  0.059322  0.059322      0.002778
  0.500000  0.050847  0.050847      0.002778
  0.500000  0.042373  0.042373      0.002778
  0.500000  0.033898  0.033898      0.002778
  0.500000  0.025424  0.025424      0.002778
  0.500000  0.016949  0.016949      0.002778
  0.500000  0.008475  0.008475      0.002778
  0.500000  0.000000  0.000000      0.002778
  0.500000  0.500000  0.000000      0.002778
  0.500000  0.500000  0.008475      0.002778
  0.500000  0.500000  0.016949      0.002778
  0.500000  0.500000  0.025424      0.002778
  0.500000  0.500000  0.033898      0.002778
  0.500000  0.500000  0.042373      0.002778
  0.500000  0.500000  0.050847      0.002778
  0.500000  0.500000  0.059322      0.002778
  0.500000  0.500000  0.067797      0.002778
  0.500000  0.500000  0.076271      0.002778
  0.500000  0.500000  0.084746      0.002778
  0.500000  0.500000  0.093220      0.002778
  0.500000  0.500000  0.101695      0.002778
  0.500000  0.500000  0.110169      0.002778
  0.500000  0.500000  0.118644      0.002778
  0.500000  0.500000  0.127119      0.002778
  0.500000  0.500000  0.135593      0.002778
  0.500000  0.500000  0.144068      0.002778
  0.500000  0.500000  0.152542      0.002778
  0.500000  0.500000  0.161017      0.002778
  0.500000  0.500000  0.169492      0.002778
  0.500000  0.500000  0.177966      0.002778
  0.500000  0.500000  0.186441      0.002778
  0.500000  0.500000  0.194915      0.002778
  0.500000  0.500000  0.203390      0.002778
  0.500000  0.500000  0.211864      0.002778
  0.500000  0.500000  0.220339      0.002778
  0.500000  0.500000  0.228814      0.002778
  0.500000  0.500000  0.237288      0.002778
  0.500000  0.500000  0.245763      0.002778
  0.500000  0.500000  0.254237      0.002778
  0.500000  0.500000  0.262712      0.002778
  0.500000  0.500000  0.271186      0.002778
  0.500000  0.500000  0.279661      0.002778
  0.500000  0.500000  0.288136      0.002778
  0.500000  0.500000  0.296610      0.002778
  0.500000  0.500000  0.305085      0.002778
  0.500000  0.500000  0.313559      0.002778
  0.500000  0.500000  0.322034      0.002778
  0.500000  0.500000  0.330508      0.002778
  0.500000  0.500000  0.338983      0.002778
  0.500000  0.500000  0.347458      0.002778
  0.500000  0.500000  0.355932      0.002778
  0.500000  0.500000  0.364407      0.002778
  0.500000  0.500000  0.372881      0.002778
  0.500000  0.500000  0.381356      0.002778
  0.500000  0.500000  0.389831      0.002778
  0.500000  0.500000  0.398305      0.002778
  0.500000  0.500000  0.406780      0.002778
  0.500000  0.500000  0.415254      0.002778
  0.500000  0.500000  0.423729      0.002778
  0.500000  0.500000  0.432203      0.002778
  0.500000  0.500000  0.440678      0.002778
  0.500000  0.500000  0.449153      0.002778
  0.500000  0.500000  0.457627      0.002778
  0.500000  0.500000  0.466102      0.002778
  0.500000  0.500000  0.474576      0.002778
  0.500000  0.500000  0.483051      0.002778
  0.500000  0.500000  0.491525      0.002778
  0.500000  0.500000  0.500000      0.002778

 Following cartesian coordinates:
            Coordinates               Weight
  0.000000  0.000000  0.000000      0.002778
  0.008475  0.000000  0.000000      0.002778
  0.016949  0.000000  0.000000      0.002778
  0.025424  0.000000  0.000000      0.002778
  0.033898  0.000000  0.000000      0.002778
  0.042373  0.000000  0.000000      0.002778
  0.050847  0.000000  0.000000      0.002778
  0.059322  0.000000  0.000000      0.002778
  0.067797  0.000000  0.000000      0.002778
  0.076271  0.000000  0.000000      0.002778
  0.084746  0.000000  0.000000      0.002778
  0.093220  0.000000  0.000000      0.002778
  0.101695  0.000000  0.000000      0.002778
  0.110169  0.000000  0.000000      0.002778
  0.118644  0.000000  0.000000      0.002778
  0.127119  0.000000  0.000000      0.002778
  0.135593  0.000000  0.000000      0.002778
  0.144068  0.000000  0.000000      0.002778
  0.152542  0.000000  0.000000      0.002778
  0.161017  0.000000  0.000000      0.002778
  0.169492  0.000000  0.000000      0.002778
  0.177966  0.000000  0.000000      0.002778
  0.186441  0.000000  0.000000      0.002778
  0.194915  0.000000  0.000000      0.002778
  0.203390  0.000000  0.000000      0.002778
  0.211864  0.000000  0.000000      0.002778
  0.220339  0.000000  0.000000      0.002778
  0.228814  0.000000  0.000000      0.002778
  0.237288  0.000000  0.000000      0.002778
  0.245763  0.000000  0.000000      0.002778
  0.254237  0.000000  0.000000      0.002778
  0.262712  0.000000  0.000000      0.002778
  0.271186  0.000000  0.000000      0.002778
  0.279661  0.000000  0.000000      0.002778
  0.288136  0.000000  0.000000      0.002778
  0.296610  0.000000  0.000000      0.002778
  0.305085  0.000000  0.000000      0.002778
  0.313559  0.000000  0.000000      0.002778
  0.322034  0.000000  0.000000      0.002778
  0.330508  0.000000  0.000000      0.002778
  0.338983  0.000000  0.000000      0.002778
  0.347458  0.000000  0.000000      0.002778
  0.355932  0.000000  0.000000      0.002778
  0.364407  0.000000  0.000000      0.002778
  0.372881  0.000000  0.000000      0.002778
  0.381356  0.000000  0.000000      0.002778
  0.389831  0.000000  0.000000      0.002778
  0.398305  0.000000  0.000000      0.002778
  0.406780  0.000000  0.000000      0.002778
  0.415254  0.000000  0.000000      0.002778
  0.423729  0.000000  0.000000      0.002778
  0.432203  0.000000  0.000000      0.002778
  0.440678  0.000000  0.000000      0.002778
  0.449153  0.000000  0.000000      0.002778
  0.457627  0.000000  0.000000      0.002778
  0.466102  0.000000  0.000000      0.002778
  0.474576  0.000000  0.000000      0.002778
  0.483051  0.000000  0.000000      0.002778
  0.491525  0.000000  0.000000      0.002778
  0.500000  0.000000  0.000000      0.002778
  0.500000  0.000000  0.000000      0.002778
  0.500000  0.008475  0.000000      0.002778
  0.500000  0.016949  0.000000      0.002778
  0.500000  0.025424  0.000000      0.002778
  0.500000  0.033898  0.000000      0.002778
  0.500000  0.042373  0.000000      0.002778
  0.500000  0.050847  0.000000      0.002778
  0.500000  0.059322  0.000000      0.002778
  0.500000  0.067797  0.000000      0.002778
  0.500000  0.076271  0.000000      0.002778
  0.500000  0.084746  0.000000      0.002778
  0.500000  0.093220  0.000000      0.002778
  0.500000  0.101695  0.000000      0.002778
  0.500000  0.110169  0.000000      0.002778
  0.500000  0.118644  0.000000      0.002778
  0.500000  0.127119  0.000000      0.002778
  0.500000  0.135593  0.000000      0.002778
  0.500000  0.144068  0.000000      0.002778
  0.500000  0.152542  0.000000      0.002778
  0.500000  0.161017  0.000000      0.002778
  0.500000  0.169492  0.000000      0.002778
  0.500000  0.177966  0.000000      0.002778
  0.500000  0.186441  0.000000      0.002778
  0.500000  0.194915  0.000000      0.002778
  0.500000  0.203390  0.000000      0.002778
  0.500000  0.211864  0.000000      0.002778
  0.500000  0.220339  0.000000      0.002778
  0.500000  0.228814  0.000000      0.002778
  0.500000  0.237288  0.000000      0.002778
  0.500000  0.245763  0.000000      0.002778
  0.500000  0.254237  0.000000      0.002778
  0.500000  0.262712  0.000000      0.002778
  0.500000  0.271186  0.000000      0.002778
  0.500000  0.279661  0.000000      0.002778
  0.500000  0.288136  0.000000      0.002778
  0.500000  0.296610  0.000000      0.002778
  0.500000  0.305085  0.000000      0.002778
  0.500000  0.313559  0.000000      0.002778
  0.500000  0.322034  0.000000      0.002778
  0.500000  0.330508  0.000000      0.002778
  0.500000  0.338983  0.000000      0.002778
  0.500000  0.347458  0.000000      0.002778
  0.500000  0.355932  0.000000      0.002778
  0.500000  0.364407  0.000000      0.002778
  0.500000  0.372881  0.000000      0.002778
  0.500000  0.381356  0.000000      0.002778
  0.500000  0.389831  0.000000      0.002778
  0.500000  0.398305  0.000000      0.002778
  0.500000  0.406780  0.000000      0.002778
  0.500000  0.415254  0.000000      0.002778
  0.500000  0.423729  0.000000      0.002778
  0.500000  0.432203  0.000000      0.002778
  0.500000  0.440678  0.000000      0.002778
  0.500000  0.449153  0.000000      0.002778
  0.500000  0.457627  0.000000      0.002778
  0.500000  0.466102  0.000000      0.002778
  0.500000  0.474576  0.000000      0.002778
  0.500000  0.483051  0.000000      0.002778
  0.500000  0.491525  0.000000      0.002778
  0.500000  0.500000  0.000000      0.002778
  0.500000  0.500000  0.000000      0.002778
  0.491525  0.491525  0.000000      0.002778
  0.483051  0.483051  0.000000      0.002778
  0.474576  0.474576  0.000000      0.002778
  0.466102  0.466102  0.000000      0.002778
  0.457627  0.457627  0.000000      0.002778
  0.449153  0.449153  0.000000      0.002778
  0.440678  0.440678  0.000000      0.002778
  0.432203  0.432203  0.000000      0.002778
  0.423729  0.423729  0.000000      0.002778
  0.415254  0.415254  0.000000      0.002778
  0.406780  0.406780  0.000000      0.002778
  0.398305  0.398305  0.000000      0.002778
  0.389831  0.389831  0.000000      0.002778
  0.381356  0.381356  0.000000      0.002778
  0.372881  0.372881  0.000000      0.002778
  0.364407  0.364407  0.000000      0.002778
  0.355932  0.355932  0.000000      0.002778
  0.347458  0.347458  0.000000      0.002778
  0.338983  0.338983  0.000000      0.002778
  0.330508  0.330508  0.000000      0.002778
  0.322034  0.322034  0.000000      0.002778
  0.313559  0.313559  0.000000      0.002778
  0.305085  0.305085  0.000000      0.002778
  0.296610  0.296610  0.000000      0.002778
  0.288136  0.288136  0.000000      0.002778
  0.279661  0.279661  0.000000      0.002778
  0.271186  0.271186  0.000000      0.002778
  0.262712  0.262712  0.000000      0.002778
  0.254237  0.254237  0.000000      0.002778
  0.245763  0.245763  0.000000      0.002778
  0.237288  0.237288  0.000000      0.002778
  0.228814  0.228814  0.000000      0.002778
  0.220339  0.220339  0.000000      0.002778
  0.211864  0.211864  0.000000      0.002778
  0.203390  0.203390  0.000000      0.002778
  0.194915  0.194915  0.000000      0.002778
  0.186441  0.186441  0.000000      0.002778
  0.177966  0.177966  0.000000      0.002778
  0.169492  0.169492  0.000000      0.002778
  0.161017  0.161017  0.000000      0.002778
  0.152542  0.152542  0.000000      0.002778
  0.144068  0.144068  0.000000      0.002778
  0.135593  0.135593  0.000000      0.002778
  0.127119  0.127119  0.000000      0.002778
  0.118644  0.118644  0.000000      0.002778
  0.110169  0.110169  0.000000      0.002778
  0.101695  0.101695  0.000000      0.002778
  0.093220  0.093220  0.000000      0.002778
  0.084746  0.084746  0.000000      0.002778
  0.076271  0.076271  0.000000      0.002778
  0.067797  0.067797  0.000000      0.002778
  0.059322  0.059322  0.000000      0.002778
  0.050847  0.050847  0.000000      0.002778
  0.042373  0.042373  0.000000      0.002778
  0.033898  0.033898  0.000000      0.002778
  0.025424  0.025424  0.000000      0.002778
  0.016949  0.016949  0.000000      0.002778
  0.008475  0.008475  0.000000      0.002778
  0.000000  0.000000  0.000000      0.002778
  0.000000  0.000000  0.000000      0.002778
  0.008475  0.008475  0.008475      0.002778
  0.016949  0.016949  0.016949      0.002778
  0.025424  0.025424  0.025424      0.002778
  0.033898  0.033898  0.033898      0.002778
  0.042373  0.042373  0.042373      0.002778
  0.050847  0.050847  0.050847      0.002778
  0.059322  0.059322  0.059322      0.002778
  0.067797  0.067797  0.067797      0.002778
  0.076271  0.076271  0.076271      0.002778
  0.084746  0.084746  0.084746      0.002778
  0.093220  0.093220  0.093220      0.002778
  0.101695  0.101695  0.101695      0.002778
  0.110169  0.110169  0.110169      0.002778
  0.118644  0.118644  0.118644      0.002778
  0.127119  0.127119  0.127119      0.002778
  0.135593  0.135593  0.135593      0.002778
  0.144068  0.144068  0.144068      0.002778
  0.152542  0.152542  0.152542      0.002778
  0.161017  0.161017  0.161017      0.002778
  0.169492  0.169492  0.169492      0.002778
  0.177966  0.177966  0.177966      0.002778
  0.186441  0.186441  0.186441      0.002778
  0.194915  0.194915  0.194915      0.002778
  0.203390  0.203390  0.203390      0.002778
  0.211864  0.211864  0.211864      0.002778
  0.220339  0.220339  0.220339      0.002778
  0.228814  0.228814  0.228814      0.002778
  0.237288  0.237288  0.237288      0.002778
  0.245763  0.245763  0.245763      0.002778
  0.254237  0.254237  0.254237      0.002778
  0.262712  0.262712  0.262712      0.002778
  0.271186  0.271186  0.271186      0.002778
  0.279661  0.279661  0.279661      0.002778
  0.288136  0.288136  0.288136      0.002778
  0.296610  0.296610  0.296610      0.002778
  0.305085  0.305085  0.305085      0.002778
  0.313559  0.313559  0.313559      0.002778
  0.322034  0.322034  0.322034      0.002778
  0.330508  0.330508  0.330508      0.002778
  0.338983  0.338983  0.338983      0.002778
  0.347458  0.347458  0.347458      0.002778
  0.355932  0.355932  0.355932      0.002778
  0.364407  0.364407  0.364407      0.002778
  0.372881  0.372881  0.372881      0.002778
  0.381356  0.381356  0.381356      0.002778
  0.389831  0.389831  0.389831      0.002778
  0.398305  0.398305  0.398305      0.002778
  0.406780  0.406780  0.406780      0.002778
  0.415254  0.415254  0.415254      0.002778
  0.423729  0.423729  0.423729      0.002778
  0.432203  0.432203  0.432203      0.002778
  0.440678  0.440678  0.440678      0.002778
  0.449153  0.449153  0.449153      0.002778
  0.457627  0.457627  0.457627      0.002778
  0.466102  0.466102  0.466102      0.002778
  0.474576  0.474576  0.474576      0.002778
  0.483051  0.483051  0.483051      0.002778
  0.491525  0.491525  0.491525      0.002778
  0.500000  0.500000  0.500000      0.002778
  0.500000  0.500000  0.500000      0.002778
  0.500000  0.491525  0.491525      0.002778
  0.500000  0.483051  0.483051      0.002778
  0.500000  0.474576  0.474576      0.002778
  0.500000  0.466102  0.466102      0.002778
  0.500000  0.457627  0.457627      0.002778
  0.500000  0.449153  0.449153      0.002778
  0.500000  0.440678  0.440678      0.002778
  0.500000  0.432203  0.432203      0.002778
  0.500000  0.423729  0.423729      0.002778
  0.500000  0.415254  0.415254      0.002778
  0.500000  0.406780  0.406780      0.002778
  0.500000  0.398305  0.398305      0.002778
  0.500000  0.389831  0.389831      0.002778
  0.500000  0.381356  0.381356      0.002778
  0.500000  0.372881  0.372881      0.002778
  0.500000  0.364407  0.364407      0.002778
  0.500000  0.355932  0.355932      0.002778
  0.500000  0.347458  0.347458      0.002778
  0.500000  0.338983  0.338983      0.002778
  0.500000  0.330508  0.330508      0.002778
  0.500000  0.322034  0.322034      0.002778
  0.500000  0.313559  0.313559      0.002778
  0.500000  0.305085  0.305085      0.002778
  0.500000  0.296610  0.296610      0.002778
  0.500000  0.288136  0.288136      0.002778
  0.500000  0.279661  0.279661      0.002778
  0.500000  0.271186  0.271186      0.002778
  0.500000  0.262712  0.262712      0.002778
  0.500000  0.254237  0.254237      0.002778
  0.500000  0.245763  0.245763      0.002778
  0.500000  0.237288  0.237288      0.002778
  0.500000  0.228814  0.228814      0.002778
  0.500000  0.220339  0.220339      0.002778
  0.500000  0.211864  0.211864      0.002778
  0.500000  0.203390  0.203390      0.002778
  0.500000  0.194915  0.194915      0.002778
  0.500000  0.186441  0.186441      0.002778
  0.500000  0.177966  0.177966      0.002778
  0.500000  0.169492  0.169492      0.002778
  0.500000  0.161017  0.161017      0.002778
  0.500000  0.152542  0.152542      0.002778
  0.500000  0.144068  0.144068      0.002778
  0.500000  0.135593  0.135593      0.002778
  0.500000  0.127119  0.127119      0.002778
  0.500000  0.118644  0.118644      0.002778
  0.500000  0.110169  0.110169      0.002778
  0.500000  0.101695  0.101695      0.002778
  0.500000  0.093220  0.093220      0.002778
  0.500000  0.084746  0.084746      0.002778
  0.500000  0.076271  0.076271      0.002778
  0.500000  0.067797  0.067797      0.002778
  0.500000  0.059322  0.059322      0.002778
  0.500000  0.050847  0.050847      0.002778
  0.500000  0.042373  0.042373      0.002778
  0.500000  0.033898  0.033898      0.002778
  0.500000  0.025424  0.025424      0.002778
  0.500000  0.016949  0.016949      0.002778
  0.500000  0.008475  0.008475      0.002778
  0.500000  0.000000  0.000000      0.002778
  0.500000  0.500000  0.000000      0.002778
  0.500000  0.500000  0.008475      0.002778
  0.500000  0.500000  0.016949      0.002778
  0.500000  0.500000  0.025424      0.002778
  0.500000  0.500000  0.033898      0.002778
  0.500000  0.500000  0.042373      0.002778
  0.500000  0.500000  0.050847      0.002778
  0.500000  0.500000  0.059322      0.002778
  0.500000  0.500000  0.067797      0.002778
  0.500000  0.500000  0.076271      0.002778
  0.500000  0.500000  0.084746      0.002778
  0.500000  0.500000  0.093220      0.002778
  0.500000  0.500000  0.101695      0.002778
  0.500000  0.500000  0.110169      0.002778
  0.500000  0.500000  0.118644      0.002778
  0.500000  0.500000  0.127119      0.002778
  0.500000  0.500000  0.135593      0.002778
  0.500000  0.500000  0.144068      0.002778
  0.500000  0.500000  0.152542      0.002778
  0.500000  0.500000  0.161017      0.002778
  0.500000  0.500000  0.169492      0.002778
  0.500000  0.500000  0.177966      0.002778
  0.500000  0.500000  0.186441      0.002778
  0.500000  0.500000  0.194915      0.002778
  0.500000  0.500000  0.203390      0.002778
  0.500000  0.500000  0.211864      0.002778
  0.500000  0.500000  0.220339      0.002778
  0.500000  0.500000  0.228814      0.002778
  0.500000  0.500000  0.237288      0.002778
  0.500000  0.500000  0.245763      0.002778
  0.500000  0.500000  0.254237      0.002778
  0.500000  0.500000  0.262712      0.002778
  0.500000  0.500000  0.271186      0.002778
  0.500000  0.500000  0.279661      0.002778
  0.500000  0.500000  0.288136      0.002778
  0.500000  0.500000  0.296610      0.002778
  0.500000  0.500000  0.305085      0.002778
  0.500000  0.500000  0.313559      0.002778
  0.500000  0.500000  0.322034      0.002778
  0.500000  0.500000  0.330508      0.002778
  0.500000  0.500000  0.338983      0.002778
  0.500000  0.500000  0.347458      0.002778
  0.500000  0.500000  0.355932      0.002778
  0.500000  0.500000  0.364407      0.002778
  0.500000  0.500000  0.372881      0.002778
  0.500000  0.500000  0.381356      0.002778
  0.500000  0.500000  0.389831      0.002778
  0.500000  0.500000  0.398305      0.002778
  0.500000  0.500000  0.406780      0.002778
  0.500000  0.500000  0.415254      0.002778
  0.500000  0.500000  0.423729      0.002778
  0.500000  0.500000  0.432203      0.002778
  0.500000  0.500000  0.440678      0.002778
  0.500000  0.500000  0.449153      0.002778
  0.500000  0.500000  0.457627      0.002778
  0.500000  0.500000  0.466102      0.002778
  0.500000  0.500000  0.474576      0.002778
  0.500000  0.500000  0.483051      0.002778
  0.500000  0.500000  0.491525      0.002778
  0.500000  0.500000  0.500000      0.002778
 


--------------------------------------------------------------------------------------------------------




 Dimension of arrays:
   k-points           NKPTS =    360   k-points in BZ     NKDIM =    360   number of bands    NBANDS=     66
   number of dos      NEDOS =    301   number of ions     NIONS =      8
   non local maximal  LDIM  =      6   non local SUM 2l+1 LMDIM =     18
   total plane-waves  NPLWV =  64000
   max r-space proj   IRMAX =      1   max aug-charges    IRDMAX=  35254
   dimension x,y,z NGX =    40 NGY =   40 NGZ =   40
   dimension x,y,z NGXF=    80 NGYF=   80 NGZF=   80
   support grid    NGXF=    80 NGYF=   80 NGZF=   80
   ions per type =               4   4
   NGX,Y,Z   is equivalent  to a cutoff of  14.36, 14.36, 14.36 a.u.
   NGXF,Y,Z  is equivalent  to a cutoff of  28.73, 28.73, 28.73 a.u.

 SYSTEM =  CoGe B20 Band Structure                 
 POSCAR =  CoGe                                    

 Startparameter for this run:
   NWRITE =      2    write-flag & timer
   PREC   = accura    normal or accurate (medium, high low for compatibility)
   ISTART =      0    job   : 0-new  1-cont  2-samecut
   ICHARG =     11    charge: 1-file 2-atom 10-const
   ISPIN  =      1    spin polarized calculation?
   LNONCOLLINEAR =      T non collinear calculations
   LSORBIT =      T    spin-orbit coupling
   INIWAV =      1    electr: 0-lowe 1-rand  2-diag
   LASPH  =      F    aspherical Exc in radial PAW
   METAGGA=      F    non-selfconsistent MetaGGA calc.

 Electronic Relaxation 1
   ENCUT  =  600.0 eV  44.10 Ry    6.64 a.u.   9.25  9.25  9.25*2*pi/ulx,y,z
   ENINI  =  600.0     initial cutoff
   ENAUG  =  477.8 eV  augmentation charge cutoff
   NELM   =    120;   NELMIN=  2; NELMDL= -5     # of ELM steps 
   EDIFF  = 0.1E-07   stopping-criterion for ELM
   LREAL  =      F    real-space projection
   NLSPLINE    = F    spline interpolate recip. space projectors
   LCOMPAT=      F    compatible to vasp.4.4
   GGA_COMPAT  = T    GGA compatible to vasp.4.4-vasp.4.6
   LMAXPAW     = -100 max onsite density
   LMAXMIX     =    4 max onsite mixed and CHGCAR
   VOSKOWN=      0    Vosko Wilk Nusair interpolation
   ROPT   =    0.00000   0.00000
 Ionic relaxation
   EDIFFG = 0.1E-06   stopping-criterion for IOM
   NSW    =      0    number of steps for IOM
   NBLOCK =      1;   KBLOCK =      1    inner block; outer block 
   IBRION =     -1    ionic relax: 0-MD 1-quasi-New 2-CG
   NFREE  =      0    steps in history (QN), initial steepest desc. (CG)
   ISIF   =      2    stress and relaxation
   IWAVPR =     10    prediction:  0-non 1-charg 2-wave 3-comb
   ISYM   =      2    0-nonsym 1-usesym 2-fastsym
   LCORR  =      T    Harris-Foulkes like correction to forces

   POTIM  = 0.5000    time-step for ionic-motion
   TEIN   =    0.0    initial temperature
   TEBEG  =    0.0;   TEEND  =   0.0 temperature during run
   SMASS  =  -3.00    Nose mass-parameter (am)
   estimated Nose-frequenzy (Omega)   =  0.10E-29 period in steps = 0.13E+47 mass=  -0.490E-27a.u.
   SCALEE = 1.0000    scale energy and forces
   NPACO  =    256;   APACO  = 16.0  distance and # of slots for P.C.
   PSTRESS=    0.0 pullay stress

  Mass of Ions in am
   POMASS =  58.93 72.61
  Ionic Valenz
   ZVAL   =   9.00  4.00
  Atomic Wigner-Seitz radii
   RWIGS  =  -1.00 -1.00
  virtual crystal weights 
   VCA    =   1.00  1.00
   NELECT =      52.0000    total number of electrons
   NUPDOWN=      -1.0000    fix difference up-down

 DOS related values:
   EMIN   =  10.00;   EMAX   =-10.00  energy-range for DOS
   EFERMI =   0.00
   ISMEAR =     0;   SIGMA  =   0.05  broadening in eV -4-tet -1-fermi 0-gaus

 Electronic relaxation 2 (details)
   IALGO  =     38    algorithm
   LDIAG  =      T    sub-space diagonalisation (order eigenvalues)
   LSUBROT=      F    optimize rotation matrix (better conditioning)
   TURBO    =      0    0=normal 1=particle mesh
   IRESTART =      0    0=no restart 2=restart with 2 vectors
   NREBOOT  =      0    no. of reboots
   NMIN     =      0    reboot dimension
   EREF     =   0.00    reference energy to select bands
   IMIX   =      4    mixing-type and parameters
     AMIX     =   0.40;   BMIX     =  1.00
     AMIX_MAG =   1.60;   BMIX_MAG =  1.00
     AMIN     =   0.10
     WC   =   100.;   INIMIX=   1;  MIXPRE=   1;  MAXMIX= -45

 Intra band minimization:
   WEIMIN = 0.0000     energy-eigenvalue tresh-hold
   EBREAK =  0.38E-10  absolut break condition
   DEPER  =   0.30     relativ break condition  

   TIME   =   0.40     timestep for ELM

  volume/ion in A,a.u.               =      12.40        83.69
  Fermi-wavevector in a.u.,A,eV,Ry     =   1.319917  2.494281 23.703803  1.742180
  Thomas-Fermi vector in A             =   2.449781
 
 Write flags
   LWAVE        =      F    write WAVECAR
   LDOWNSAMPLE  =      F    k-point downsampling of WAVECAR
   LCHARG       =      F    write CHGCAR
   LVTOT        =      F    write LOCPOT, total local potential
   LVHAR        =      F    write LOCPOT, Hartree potential only
   LELF         =      F    write electronic localiz. function (ELF)
   LORBIT       =     11    0 simple, 1 ext, 2 COOP (PROOUT), +10 PAW based schemes


 Dipole corrections
   LMONO  =      F    monopole corrections only (constant potential shift)
   LDIPOL =      F    correct potential (dipole corrections)
   IDIPOL =      0    1-x, 2-y, 3-z, 4-all directions 
   EPSILON=  1.0000000 bulk dielectric constant

 Exchange correlation treatment:
   GGA     =    --    GGA type
   LEXCH   =     8    internal setting for exchange type
   VOSKOWN=      0    Vosko Wilk Nusair interpolation
   LHFCALC =     F    Hartree Fock is set to
   LHFONE  =     F    Hartree Fock one center treatment
   AEXX    =    0.0000 exact exchange contribution

 Linear response parameters
   LEPSILON=     F    determine dielectric tensor
   LRPA    =     F    only Hartree local field effects (RPA)
   LNABLA  =     F    use nabla operator in PAW spheres
   LVEL    =     F    velocity operator in full k-point grid
   LINTERFAST=   F  fast interpolation
   KINTER  =     0    interpolate to denser k-point grid
   CSHIFT  =0.1000    complex shift for real part using Kramers Kronig
   OMEGAMAX=  -1.0    maximum frequency
   DEG_THRESHOLD= 0.2000000E-02 threshold for treating states as degnerate
   RTIME   =   -0.100 relaxation time in fs
  (WPLASMAI=    0.000 imaginary part of plasma frequency in eV, 0.658/RTIME)
   DFIELD  = 0.0000000 0.0000000 0.0000000 field for delta impulse in time
 
 Orbital magnetization related:
   ORBITALMAG=     F  switch on orbital magnetization
   LCHIMAG   =     F  perturbation theory with respect to B field
   DQ        =  0.001000  dq finite difference perturbation B field
   LLRAUG    =     F  two centre corrections for induced B field



--------------------------------------------------------------------------------------------------------


 Static calculation
 charge density and potential remain constant during run
 non collinear spin polarized calculation
 Variant of blocked Davidson
 Davidson routine will perform the subspace rotation
 perform sub-space diagonalisation
    after iterative eigenvector-optimisation
 no mixing
 using additional bands           40
 reciprocal scheme for non local part
 use partial core corrections
 calculate Harris-corrections to forces 
   (improved forces if not selfconsistent)
 use gradient corrections 
 WARNING: stress and forces are not correct
  (second derivative of E(xc) not defined)
 use of overlap-Matrix (Vanderbilt PP)
 Gauss-broadening in eV      SIGMA  =   0.05


--------------------------------------------------------------------------------------------------------


  energy-cutoff  :      600.00
  volume of cell :       99.22
      direct lattice vectors                 reciprocal lattice vectors
     4.629449844  0.000000000  0.000000000     0.216008388  0.000000000  0.000000000
     0.000000000  4.629449844  0.000000000     0.000000000  0.216008388  0.000000000
     0.000000000  0.000000000  4.629449844     0.000000000  0.000000000  0.216008388

  length of vectors
     4.629449844  4.629449844  4.629449844     0.216008388  0.216008388  0.216008388


 
 k-points in units of 2pi/SCALE and weight: K-Path for pristine bulk CoGe           
   0.00000000  0.00000000  0.00000000       0.003
   0.00847458  0.00000000  0.00000000       0.003
   0.01694915  0.00000000  0.00000000       0.003
   0.02542373  0.00000000  0.00000000       0.003
   0.03389831  0.00000000  0.00000000       0.003
   0.04237288  0.00000000  0.00000000       0.003
   0.05084746  0.00000000  0.00000000       0.003
   0.05932203  0.00000000  0.00000000       0.003
   0.06779661  0.00000000  0.00000000       0.003
   0.07627119  0.00000000  0.00000000       0.003
   0.08474576  0.00000000  0.00000000       0.003
   0.09322034  0.00000000  0.00000000       0.003
   0.10169492  0.00000000  0.00000000       0.003
   0.11016949  0.00000000  0.00000000       0.003
   0.11864407  0.00000000  0.00000000       0.003
   0.12711864  0.00000000  0.00000000       0.003
   0.13559322  0.00000000  0.00000000       0.003
   0.14406780  0.00000000  0.00000000       0.003
   0.15254237  0.00000000  0.00000000       0.003
   0.16101695  0.00000000  0.00000000       0.003
   0.16949153  0.00000000  0.00000000       0.003
   0.17796610  0.00000000  0.00000000       0.003
   0.18644068  0.00000000  0.00000000       0.003
   0.19491525  0.00000000  0.00000000       0.003
   0.20338983  0.00000000  0.00000000       0.003
   0.21186441  0.00000000  0.00000000       0.003
   0.22033898  0.00000000  0.00000000       0.003
   0.22881356  0.00000000  0.00000000       0.003
   0.23728814  0.00000000  0.00000000       0.003
   0.24576271  0.00000000  0.00000000       0.003
   0.25423729  0.00000000  0.00000000       0.003
   0.26271186  0.00000000  0.00000000       0.003
   0.27118644  0.00000000  0.00000000       0.003
   0.27966102  0.00000000  0.00000000       0.003
   0.28813559  0.00000000  0.00000000       0.003
   0.29661017  0.00000000  0.00000000       0.003
   0.30508475  0.00000000  0.00000000       0.003
   0.31355932  0.00000000  0.00000000       0.003
   0.32203390  0.00000000  0.00000000       0.003
   0.33050847  0.00000000  0.00000000       0.003
   0.33898305  0.00000000  0.00000000       0.003
   0.34745763  0.00000000  0.00000000       0.003
   0.35593220  0.00000000  0.00000000       0.003
   0.36440678  0.00000000  0.00000000       0.003
   0.37288136  0.00000000  0.00000000       0.003
   0.38135593  0.00000000  0.00000000       0.003
   0.38983051  0.00000000  0.00000000       0.003
   0.39830508  0.00000000  0.00000000       0.003
   0.40677966  0.00000000  0.00000000       0.003
   0.41525424  0.00000000  0.00000000       0.003
   0.42372881  0.00000000  0.00000000       0.003
   0.43220339  0.00000000  0.00000000       0.003
   0.44067797  0.00000000  0.00000000       0.003
   0.44915254  0.00000000  0.00000000       0.003
   0.45762712  0.00000000  0.00000000       0.003
   0.46610169  0.00000000  0.00000000       0.003
   0.47457627  0.00000000  0.00000000       0.003
   0.48305085  0.00000000  0.00000000       0.003
   0.49152542  0.00000000  0.00000000       0.003
   0.50000000  0.00000000  0.00000000       0.003
   0.50000000  0.00000000  0.00000000       0.003
   0.50000000  0.00847458  0.00000000       0.003
   0.50000000  0.01694915  0.00000000       0.003
   0.50000000  0.02542373  0.00000000       0.003
   0.50000000  0.03389831  0.00000000       0.003
   0.50000000  0.04237288  0.00000000       0.003
   0.50000000  0.05084746  0.00000000       0.003
   0.50000000  0.05932203  0.00000000       0.003
   0.50000000  0.06779661  0.00000000       0.003
   0.50000000  0.07627119  0.00000000       0.003
   0.50000000  0.08474576  0.00000000       0.003
   0.50000000  0.09322034  0.00000000       0.003
   0.50000000  0.10169492  0.00000000       0.003
   0.50000000  0.11016949  0.00000000       0.003
   0.50000000  0.11864407  0.00000000       0.003
   0.50000000  0.12711864  0.00000000       0.003
   0.50000000  0.13559322  0.00000000       0.003
   0.50000000  0.14406780  0.00000000       0.003
   0.50000000  0.15254237  0.00000000       0.003
   0.50000000  0.16101695  0.00000000       0.003
   0.50000000  0.16949153  0.00000000       0.003
   0.50000000  0.17796610  0.00000000       0.003
   0.50000000  0.18644068  0.00000000       0.003
   0.50000000  0.19491525  0.00000000       0.003
   0.50000000  0.20338983  0.00000000       0.003
   0.50000000  0.21186441  0.00000000       0.003
   0.50000000  0.22033898  0.00000000       0.003
   0.50000000  0.22881356  0.00000000       0.003
   0.50000000  0.23728814  0.00000000       0.003
   0.50000000  0.24576271  0.00000000       0.003
   0.50000000  0.25423729  0.00000000       0.003
   0.50000000  0.26271186  0.00000000       0.003
   0.50000000  0.27118644  0.00000000       0.003
   0.50000000  0.27966102  0.00000000       0.003
   0.50000000  0.28813559  0.00000000       0.003
   0.50000000  0.29661017  0.00000000       0.003
   0.50000000  0.30508475  0.00000000       0.003
   0.50000000  0.31355932  0.00000000       0.003
   0.50000000  0.32203390  0.00000000       0.003
   0.50000000  0.33050847  0.00000000       0.003
   0.50000000  0.33898305  0.00000000       0.003
   0.50000000  0.34745763  0.00000000       0.003
   0.50000000  0.35593220  0.00000000       0.003
   0.50000000  0.36440678  0.00000000       0.003
   0.50000000  0.37288136  0.00000000       0.003
   0.50000000  0.38135593  0.00000000       0.003
   0.50000000  0.38983051  0.00000000       0.003
   0.50000000  0.39830508  0.00000000       0.003
   0.50000000  0.40677966  0.00000000       0.003
   0.50000000  0.41525424  0.00000000       0.003
   0.50000000  0.42372881  0.00000000       0.003
   0.50000000  0.43220339  0.00000000       0.003
   0.50000000  0.44067797  0.00000000       0.003
   0.50000000  0.44915254  0.00000000       0.003
   0.50000000  0.45762712  0.00000000       0.003
   0.50000000  0.46610169  0.00000000       0.003
   0.50000000  0.47457627  0.00000000       0.003
   0.50000000  0.48305085  0.00000000       0.003
   0.50000000  0.49152542  0.00000000       0.003
   0.50000000  0.50000000  0.00000000       0.003
   0.50000000  0.50000000  0.00000000       0.003
   0.49152542  0.49152542  0.00000000       0.003
   0.48305085  0.48305085  0.00000000       0.003
   0.47457627  0.47457627  0.00000000       0.003
   0.46610169  0.46610169  0.00000000       0.003
   0.45762712  0.45762712  0.00000000       0.003
   0.44915254  0.44915254  0.00000000       0.003
   0.44067797  0.44067797  0.00000000       0.003
   0.43220339  0.43220339  0.00000000       0.003
   0.42372881  0.42372881  0.00000000       0.003
   0.41525424  0.41525424  0.00000000       0.003
   0.40677966  0.40677966  0.00000000       0.003
   0.39830508  0.39830508  0.00000000       0.003
   0.38983051  0.38983051  0.00000000       0.003
   0.38135593  0.38135593  0.00000000       0.003
   0.37288136  0.37288136  0.00000000       0.003
   0.36440678  0.36440678  0.00000000       0.003
   0.35593220  0.35593220  0.00000000       0.003
   0.34745763  0.34745763  0.00000000       0.003
   0.33898305  0.33898305  0.00000000       0.003
   0.33050847  0.33050847  0.00000000       0.003
   0.32203390  0.32203390  0.00000000       0.003
   0.31355932  0.31355932  0.00000000       0.003
   0.30508475  0.30508475  0.00000000       0.003
   0.29661017  0.29661017  0.00000000       0.003
   0.28813559  0.28813559  0.00000000       0.003
   0.27966102  0.27966102  0.00000000       0.003
   0.27118644  0.27118644  0.00000000       0.003
   0.26271186  0.26271186  0.00000000       0.003
   0.25423729  0.25423729  0.00000000       0.003
   0.24576271  0.24576271  0.00000000       0.003
   0.23728814  0.23728814  0.00000000       0.003
   0.22881356  0.22881356  0.00000000       0.003
   0.22033898  0.22033898  0.00000000       0.003
   0.21186441  0.21186441  0.00000000       0.003
   0.20338983  0.20338983  0.00000000       0.003
   0.19491525  0.19491525  0.00000000       0.003
   0.18644068  0.18644068  0.00000000       0.003
   0.17796610  0.17796610  0.00000000       0.003
   0.16949153  0.16949153  0.00000000       0.003
   0.16101695  0.16101695  0.00000000       0.003
   0.15254237  0.15254237  0.00000000       0.003
   0.14406780  0.14406780  0.00000000       0.003
   0.13559322  0.13559322  0.00000000       0.003
   0.12711864  0.12711864  0.00000000       0.003
   0.11864407  0.11864407  0.00000000       0.003
   0.11016949  0.11016949  0.00000000       0.003
   0.10169492  0.10169492  0.00000000       0.003
   0.09322034  0.09322034  0.00000000       0.003
   0.08474576  0.08474576  0.00000000       0.003
   0.07627119  0.07627119  0.00000000       0.003
   0.06779661  0.06779661  0.00000000       0.003
   0.05932203  0.05932203  0.00000000       0.003
   0.05084746  0.05084746  0.00000000       0.003
   0.04237288  0.04237288  0.00000000       0.003
   0.03389831  0.03389831  0.00000000       0.003
   0.02542373  0.02542373  0.00000000       0.003
   0.01694915  0.01694915  0.00000000       0.003
   0.00847458  0.00847458  0.00000000       0.003
   0.00000000  0.00000000  0.00000000       0.003
   0.00000000  0.00000000  0.00000000       0.003
   0.00847458  0.00847458  0.00847458       0.003
   0.01694915  0.01694915  0.01694915       0.003
   0.02542373  0.02542373  0.02542373       0.003
   0.03389831  0.03389831  0.03389831       0.003
   0.04237288  0.04237288  0.04237288       0.003
   0.05084746  0.05084746  0.05084746       0.003
   0.05932203  0.05932203  0.05932203       0.003
   0.06779661  0.06779661  0.06779661       0.003
   0.07627119  0.07627119  0.07627119       0.003
   0.08474576  0.08474576  0.08474576       0.003
   0.09322034  0.09322034  0.09322034       0.003
   0.10169492  0.10169492  0.10169492       0.003
   0.11016949  0.11016949  0.11016949       0.003
   0.11864407  0.11864407  0.11864407       0.003
   0.12711864  0.12711864  0.12711864       0.003
   0.13559322  0.13559322  0.13559322       0.003
   0.14406780  0.14406780  0.14406780       0.003
   0.15254237  0.15254237  0.15254237       0.003
   0.16101695  0.16101695  0.16101695       0.003
   0.16949153  0.16949153  0.16949153       0.003
   0.17796610  0.17796610  0.17796610       0.003
   0.18644068  0.18644068  0.18644068       0.003
   0.19491525  0.19491525  0.19491525       0.003
   0.20338983  0.20338983  0.20338983       0.003
   0.21186441  0.21186441  0.21186441       0.003
   0.22033898  0.22033898  0.22033898       0.003
   0.22881356  0.22881356  0.22881356       0.003
   0.23728814  0.23728814  0.23728814       0.003
   0.24576271  0.24576271  0.24576271       0.003
   0.25423729  0.25423729  0.25423729       0.003
   0.26271186  0.26271186  0.26271186       0.003
   0.27118644  0.27118644  0.27118644       0.003
   0.27966102  0.27966102  0.27966102       0.003
   0.28813559  0.28813559  0.28813559       0.003
   0.29661017  0.29661017  0.29661017       0.003
   0.30508475  0.30508475  0.30508475       0.003
   0.31355932  0.31355932  0.31355932       0.003
   0.32203390  0.32203390  0.32203390       0.003
   0.33050847  0.33050847  0.33050847       0.003
   0.33898305  0.33898305  0.33898305       0.003
   0.34745763  0.34745763  0.34745763       0.003
   0.35593220  0.35593220  0.35593220       0.003
   0.36440678  0.36440678  0.36440678       0.003
   0.37288136  0.37288136  0.37288136       0.003
   0.38135593  0.38135593  0.38135593       0.003
   0.38983051  0.38983051  0.38983051       0.003
   0.39830508  0.39830508  0.39830508       0.003
   0.40677966  0.40677966  0.40677966       0.003
   0.41525424  0.41525424  0.41525424       0.003
   0.42372881  0.42372881  0.42372881       0.003
   0.43220339  0.43220339  0.43220339       0.003
   0.44067797  0.44067797  0.44067797       0.003
   0.44915254  0.44915254  0.44915254       0.003
   0.45762712  0.45762712  0.45762712       0.003
   0.46610169  0.46610169  0.46610169       0.003
   0.47457627  0.47457627  0.47457627       0.003
   0.48305085  0.48305085  0.48305085       0.003
   0.49152542  0.49152542  0.49152542       0.003
   0.50000000  0.50000000  0.50000000       0.003
   0.50000000  0.50000000  0.50000000       0.003
   0.50000000  0.49152542  0.49152542       0.003
   0.50000000  0.48305085  0.48305085       0.003
   0.50000000  0.47457627  0.47457627       0.003
   0.50000000  0.46610169  0.46610169       0.003
   0.50000000  0.45762712  0.45762712       0.003
   0.50000000  0.44915254  0.44915254       0.003
   0.50000000  0.44067797  0.44067797       0.003
   0.50000000  0.43220339  0.43220339       0.003
   0.50000000  0.42372881  0.42372881       0.003
   0.50000000  0.41525424  0.41525424       0.003
   0.50000000  0.40677966  0.40677966       0.003
   0.50000000  0.39830508  0.39830508       0.003
   0.50000000  0.38983051  0.38983051       0.003
   0.50000000  0.38135593  0.38135593       0.003
   0.50000000  0.37288136  0.37288136       0.003
   0.50000000  0.36440678  0.36440678       0.003
   0.50000000  0.35593220  0.35593220       0.003
   0.50000000  0.34745763  0.34745763       0.003
   0.50000000  0.33898305  0.33898305       0.003
   0.50000000  0.33050847  0.33050847       0.003
   0.50000000  0.32203390  0.32203390       0.003
   0.50000000  0.31355932  0.31355932       0.003
   0.50000000  0.30508475  0.30508475       0.003
   0.50000000  0.29661017  0.29661017       0.003
   0.50000000  0.28813559  0.28813559       0.003
   0.50000000  0.27966102  0.27966102       0.003
   0.50000000  0.27118644  0.27118644       0.003
   0.50000000  0.26271186  0.26271186       0.003
   0.50000000  0.25423729  0.25423729       0.003
   0.50000000  0.24576271  0.24576271       0.003
   0.50000000  0.23728814  0.23728814       0.003
   0.50000000  0.22881356  0.22881356       0.003
   0.50000000  0.22033898  0.22033898       0.003
   0.50000000  0.21186441  0.21186441       0.003
   0.50000000  0.20338983  0.20338983       0.003
   0.50000000  0.19491525  0.19491525       0.003
   0.50000000  0.18644068  0.18644068       0.003
   0.50000000  0.17796610  0.17796610       0.003
   0.50000000  0.16949153  0.16949153       0.003
   0.50000000  0.16101695  0.16101695       0.003
   0.50000000  0.15254237  0.15254237       0.003
   0.50000000  0.14406780  0.14406780       0.003
   0.50000000  0.13559322  0.13559322       0.003
   0.50000000  0.12711864  0.12711864       0.003
   0.50000000  0.11864407  0.11864407       0.003
   0.50000000  0.11016949  0.11016949       0.003
   0.50000000  0.10169492  0.10169492       0.003
   0.50000000  0.09322034  0.09322034       0.003
   0.50000000  0.08474576  0.08474576       0.003
   0.50000000  0.07627119  0.07627119       0.003
   0.50000000  0.06779661  0.06779661       0.003
   0.50000000  0.05932203  0.05932203       0.003
   0.50000000  0.05084746  0.05084746       0.003
   0.50000000  0.04237288  0.04237288       0.003
   0.50000000  0.03389831  0.03389831       0.003
   0.50000000  0.02542373  0.02542373       0.003
   0.50000000  0.01694915  0.01694915       0.003
   0.50000000  0.00847458  0.00847458       0.003
   0.50000000  0.00000000  0.00000000       0.003
   0.50000000  0.50000000  0.00000000       0.003
   0.50000000  0.50000000  0.00847458       0.003
   0.50000000  0.50000000  0.01694915       0.003
   0.50000000  0.50000000  0.02542373       0.003
   0.50000000  0.50000000  0.03389831       0.003
   0.50000000  0.50000000  0.04237288       0.003
   0.50000000  0.50000000  0.05084746       0.003
   0.50000000  0.50000000  0.05932203       0.003
   0.50000000  0.50000000  0.06779661       0.003
   0.50000000  0.50000000  0.07627119       0.003
   0.50000000  0.50000000  0.08474576       0.003
   0.50000000  0.50000000  0.09322034       0.003
   0.50000000  0.50000000  0.10169492       0.003
   0.50000000  0.50000000  0.11016949       0.003
   0.50000000  0.50000000  0.11864407       0.003
   0.50000000  0.50000000  0.12711864       0.003
   0.50000000  0.50000000  0.13559322       0.003
   0.50000000  0.50000000  0.14406780       0.003
   0.50000000  0.50000000  0.15254237       0.003
   0.50000000  0.50000000  0.16101695       0.003
   0.50000000  0.50000000  0.16949153       0.003
   0.50000000  0.50000000  0.17796610       0.003
   0.50000000  0.50000000  0.18644068       0.003
   0.50000000  0.50000000  0.19491525       0.003
   0.50000000  0.50000000  0.20338983       0.003
   0.50000000  0.50000000  0.21186441       0.003
   0.50000000  0.50000000  0.22033898       0.003
   0.50000000  0.50000000  0.22881356       0.003
   0.50000000  0.50000000  0.23728814       0.003
   0.50000000  0.50000000  0.24576271       0.003
   0.50000000  0.50000000  0.25423729       0.003
   0.50000000  0.50000000  0.26271186       0.003
   0.50000000  0.50000000  0.27118644       0.003
   0.50000000  0.50000000  0.27966102       0.003
   0.50000000  0.50000000  0.28813559       0.003
   0.50000000  0.50000000  0.29661017       0.003
   0.50000000  0.50000000  0.30508475       0.003
   0.50000000  0.50000000  0.31355932       0.003
   0.50000000  0.50000000  0.32203390       0.003
   0.50000000  0.50000000  0.33050847       0.003
   0.50000000  0.50000000  0.33898305       0.003
   0.50000000  0.50000000  0.34745763       0.003
   0.50000000  0.50000000  0.35593220       0.003
   0.50000000  0.50000000  0.36440678       0.003
   0.50000000  0.50000000  0.37288136       0.003
   0.50000000  0.50000000  0.38135593       0.003
   0.50000000  0.50000000  0.38983051       0.003
   0.50000000  0.50000000  0.39830508       0.003
   0.50000000  0.50000000  0.40677966       0.003
   0.50000000  0.50000000  0.41525424       0.003
   0.50000000  0.50000000  0.42372881       0.003
   0.50000000  0.50000000  0.43220339       0.003
   0.50000000  0.50000000  0.44067797       0.003
   0.50000000  0.50000000  0.44915254       0.003
   0.50000000  0.50000000  0.45762712       0.003
   0.50000000  0.50000000  0.46610169       0.003
   0.50000000  0.50000000  0.47457627       0.003
   0.50000000  0.50000000  0.48305085       0.003
   0.50000000  0.50000000  0.49152542       0.003
   0.50000000  0.50000000  0.50000000       0.003
 
 k-points in reciprocal lattice and weights: K-Path for pristine bulk CoGe           
   0.00000000  0.00000000  0.00000000       0.003
   0.00847458  0.00000000  0.00000000       0.003
   0.01694915  0.00000000  0.00000000       0.003
   0.02542373  0.00000000  0.00000000       0.003
   0.03389831  0.00000000  0.00000000       0.003
   0.04237288  0.00000000  0.00000000       0.003
   0.05084746  0.00000000  0.00000000       0.003
   0.05932203  0.00000000  0.00000000       0.003
   0.06779661  0.00000000  0.00000000       0.003
   0.07627119  0.00000000  0.00000000       0.003
   0.08474576  0.00000000  0.00000000       0.003
   0.09322034  0.00000000  0.00000000       0.003
   0.10169492  0.00000000  0.00000000       0.003
   0.11016949  0.00000000  0.00000000       0.003
   0.11864407  0.00000000  0.00000000       0.003
   0.12711864  0.00000000  0.00000000       0.003
   0.13559322  0.00000000  0.00000000       0.003
   0.14406780  0.00000000  0.00000000       0.003
   0.15254237  0.00000000  0.00000000       0.003
   0.16101695  0.00000000  0.00000000       0.003
   0.16949153  0.00000000  0.00000000       0.003
   0.17796610  0.00000000  0.00000000       0.003
[...]
    4        0.000  -0.000   0.000   0.000
    5        0.000  -0.000  -0.000   0.000
    6        0.000  -0.000  -0.000   0.000
    7       -0.000   0.000   0.000  -0.000
    8       -0.000   0.000   0.000  -0.000
--------------------------------------------------
tot          0.000  -0.000   0.000   0.000



 magnetization (y)

# of ion       s       p       d       tot
------------------------------------------
    1       -0.000   0.000  -0.000  -0.000
    2        0.000  -0.000   0.000   0.000
    3       -0.000   0.000  -0.000  -0.000
    4        0.000  -0.000   0.000   0.000
    5        0.000  -0.000  -0.000   0.000
    6       -0.000   0.000   0.000  -0.000
    7        0.000  -0.000  -0.000   0.000
    8       -0.000   0.000   0.000  -0.000
--------------------------------------------------
tot         -0.000   0.000   0.000   0.000



 magnetization (z)

# of ion       s       p       d       tot
------------------------------------------
    1       -0.000   0.000  -0.000  -0.000
    2        0.000  -0.000   0.000   0.000
    3        0.000  -0.000   0.000   0.000
    4       -0.000   0.000  -0.000  -0.000
    5        0.000  -0.000  -0.000   0.000
    6       -0.000   0.000   0.000  -0.000
    7       -0.000   0.000   0.000  -0.000
    8        0.000  -0.000  -0.000   0.000
--------------------------------------------------
tot          0.000  -0.000   0.000   0.000
 
    CHARGE:  cpu time    7.5902: real time    7.6084
    FORLOC:  cpu time    0.0084: real time    0.0085
    FORNL :  cpu time   15.3182: real time   15.3549
    STRESS:  cpu time   28.1119: real time   28.1791
    FORCOR:  cpu time    0.2310: real time    0.2316
    FORHAR:  cpu time    0.0262: real time    0.0263
    OFIELD:  cpu time    0.0013: real time    0.0013

  FORCE on cell =-STRESS in cart. coord.  units (eV):
  Direction    XX          YY          ZZ          XY          YZ          ZX
  --------------------------------------------------------------------------------------
  Alpha Z   198.83810   198.83810   198.83810
  Ewald   -1086.94030 -1086.94030 -1086.94030     0.00000    -0.00000    -0.00000
  Hartree   281.20418   281.20418   281.20418    -0.00000    -0.00000     0.00000
  E(xc)    -242.55252  -242.55252  -242.55252    -0.00000    -0.00000     0.00000
  Local    -257.47744  -257.47744  -257.47744    -0.00000     0.00000     0.00000
  n-local    47.17398    43.73101    42.56323    -0.16050    -0.43606    -0.14087
  augment   631.55784   631.55784   631.55784    -0.00000    -0.00000    -0.00000
  Kinetic   433.13454   438.14227   444.87729     0.50324     0.21478     0.19724
  Fock        0.00000     0.00000     0.00000     0.00000     0.00000     0.00000
  -------------------------------------------------------------------------------------
  Total       7.83730     7.83730     7.83730     0.00000    -0.00000     0.00000
  in kB     126.55783   126.55783   126.55783     0.00000    -0.00000     0.00000
  external pressure =      126.56 kB  Pullay stress =        0.00 kB


 VOLUME and BASIS-vectors are now :
 -----------------------------------------------------------------------------
  energy-cutoff  :      600.00
  volume of cell :       99.22
      direct lattice vectors                 reciprocal lattice vectors
     4.629449844  0.000000000  0.000000000     0.216008388  0.000000000  0.000000000
     0.000000000  4.629449844  0.000000000     0.000000000  0.216008388  0.000000000
     0.000000000  0.000000000  4.629449844     0.000000000  0.000000000  0.216008388

  length of vectors
     4.629449844  4.629449844  4.629449844     0.216008388  0.216008388  0.216008388


 FORCES acting on ions
    electron-ion (+dipol)            ewald-force                    non-local-force                 convergence-correction
 -----------------------------------------------------------------------------------------------
   -.980E+01 -.980E+01 -.980E+01   0.106E+02 0.106E+02 0.106E+02   -.906E+00 -.906E+00 -.906E+00   0.240E-01 0.240E-01 0.240E-01
   -.980E+01 0.980E+01 0.980E+01   0.106E+02 -.106E+02 -.106E+02   -.906E+00 0.906E+00 0.906E+00   0.240E-01 -.240E-01 -.240E-01
   0.980E+01 -.980E+01 0.980E+01   -.106E+02 0.106E+02 -.106E+02   0.906E+00 -.906E+00 0.906E+00   -.240E-01 0.240E-01 -.240E-01
   0.980E+01 0.980E+01 -.980E+01   -.106E+02 -.106E+02 0.106E+02   0.906E+00 0.906E+00 -.906E+00   -.240E-01 -.240E-01 0.240E-01
   -.722E+01 -.722E+01 -.722E+01   0.650E+01 0.650E+01 0.650E+01   0.579E+00 0.579E+00 0.579E+00   0.451E-01 0.451E-01 0.451E-01
   -.722E+01 0.722E+01 0.722E+01   0.650E+01 -.650E+01 -.650E+01   0.579E+00 -.579E+00 -.579E+00   0.451E-01 -.451E-01 -.451E-01
   0.722E+01 -.722E+01 0.722E+01   -.650E+01 0.650E+01 -.650E+01   -.579E+00 0.579E+00 -.579E+00   -.451E-01 0.451E-01 -.451E-01
   0.722E+01 0.722E+01 -.722E+01   -.650E+01 -.650E+01 0.650E+01   -.579E+00 -.579E+00 0.579E+00   -.451E-01 -.451E-01 0.451E-01
 -----------------------------------------------------------------------------------------------
   0.129E-09 0.127E-09 0.134E-09   0.178E-14 0.533E-14 -.711E-14   0.000E+00 -.111E-15 0.000E+00   -.598E-12 0.614E-11 0.592E-11
 
 
 POSITION                                       TOTAL-FORCE (eV/Angst)
 -----------------------------------------------------------------------------------
      0.64812      0.64812      0.64812        -0.058275     -0.058275     -0.058275
      2.96285      1.66660      3.98133        -0.058275      0.058275      0.058275
      3.98133      2.96285      1.66660         0.058275     -0.058275      0.058275
      1.66660      3.98133      2.96285         0.058275      0.058275     -0.058275
      3.89337      3.89337      3.89337        -0.100220     -0.100220     -0.100220
      1.57864      3.05081      0.73608        -0.100220      0.100220      0.100220
      0.73608      1.57864      3.05081         0.100220     -0.100220      0.100220
      3.05081      0.73608      1.57864         0.100220      0.100220     -0.100220
 -----------------------------------------------------------------------------------
    total drift:                                0.000000      0.000000      0.000000


--------------------------------------------------------------------------------------------------------



  FREE ENERGIE OF THE ION-ELECTRON SYSTEM (eV)
  ---------------------------------------------------
  free  energy   TOTEN  =       -47.96957084 eV

  energy  without entropy=      -47.95706670  energy(sigma->0) =      -47.96331877
 


--------------------------------------------------------------------------------------------------------


    POTLOK:  cpu time    0.2749: real time    0.2756


--------------------------------------------------------------------------------------------------------


     LOOP+:  cpu time 1369.7108: real time 1373.0283
    4ORBIT:  cpu time    0.0000: real time    0.0000

 Spin-Orbit-Coupling matrix elements

 Ion:    1  E_soc:     -0.0146360
 l=   1
     0.0000000    -0.0002673    -0.0002673
    -0.0002673     0.0000000    -0.0002673
    -0.0002673    -0.0002673     0.0000000
 l=   2
     0.0000000    -0.0004055     0.0000000    -0.0004055    -0.0017666
    -0.0004055     0.0000000    -0.0013502    -0.0004055    -0.0004164
     0.0000000    -0.0013502     0.0000000    -0.0012997     0.0000000
    -0.0004055    -0.0004055    -0.0012997     0.0000000    -0.0004669
    -0.0017666    -0.0004164     0.0000000    -0.0004669     0.0000000
 l=   3
     0.0000000     0.0000000     0.0000000     0.0000000     0.0000000     0.0000000     0.0000000
     0.0000000     0.0000000     0.0000000     0.0000000     0.0000000     0.0000000     0.0000000
     0.0000000     0.0000000     0.0000000     0.0000000     0.0000000     0.0000000     0.0000000
     0.0000000     0.0000000     0.0000000     0.0000000     0.0000000     0.0000000     0.0000000
     0.0000000     0.0000000     0.0000000     0.0000000     0.0000000     0.0000000     0.0000000
     0.0000000     0.0000000     0.0000000     0.0000000     0.0000000     0.0000000     0.0000000
     0.0000000     0.0000000     0.0000000     0.0000000     0.0000000     0.0000000     0.0000000

 Ion:    2  E_soc:     -0.0146360
 l=   1
     0.0000000    -0.0002673    -0.0002673
    -0.0002673     0.0000000    -0.0002673
    -0.0002673    -0.0002673     0.0000000
 l=   2
     0.0000000    -0.0004055     0.0000000    -0.0004055    -0.0017666
    -0.0004055     0.0000000    -0.0013502    -0.0004055    -0.0004164
     0.0000000    -0.0013502     0.0000000    -0.0012997     0.0000000
    -0.0004055    -0.0004055    -0.0012997     0.0000000    -0.0004669
    -0.0017666    -0.0004164     0.0000000    -0.0004669     0.0000000
 l=   3
     0.0000000     0.0000000     0.0000000     0.0000000     0.0000000     0.0000000     0.0000000
     0.0000000     0.0000000     0.0000000     0.0000000     0.0000000     0.0000000     0.0000000
     0.0000000     0.0000000     0.0000000     0.0000000     0.0000000     0.0000000     0.0000000
     0.0000000     0.0000000     0.0000000     0.0000000     0.0000000     0.0000000     0.0000000
     0.0000000     0.0000000     0.0000000     0.0000000     0.0000000     0.0000000     0.0000000
     0.0000000     0.0000000     0.0000000     0.0000000     0.0000000     0.0000000     0.0000000
     0.0000000     0.0000000     0.0000000     0.0000000     0.0000000     0.0000000     0.0000000

 Ion:    3  E_soc:     -0.0146360
 l=   1
     0.0000000    -0.0002673    -0.0002673
    -0.0002673     0.0000000    -0.0002673
    -0.0002673    -0.0002673     0.0000000
 l=   2
     0.0000000    -0.0004055     0.0000000    -0.0004055    -0.0017666
    -0.0004055     0.0000000    -0.0013502    -0.0004055    -0.0004164
     0.0000000    -0.0013502     0.0000000    -0.0012997     0.0000000
    -0.0004055    -0.0004055    -0.0012997     0.0000000    -0.0004669
    -0.0017666    -0.0004164     0.0000000    -0.0004669     0.0000000
 l=   3
     0.0000000     0.0000000     0.0000000     0.0000000     0.0000000     0.0000000     0.0000000
     0.0000000     0.0000000     0.0000000     0.0000000     0.0000000     0.0000000     0.0000000
     0.0000000     0.0000000     0.0000000     0.0000000     0.0000000     0.0000000     0.0000000
     0.0000000     0.0000000     0.0000000     0.0000000     0.0000000     0.0000000     0.0000000
     0.0000000     0.0000000     0.0000000     0.0000000     0.0000000     0.0000000     0.0000000
     0.0000000     0.0000000     0.0000000     0.0000000     0.0000000     0.0000000     0.0000000
     0.0000000     0.0000000     0.0000000     0.0000000     0.0000000     0.0000000     0.0000000

 Ion:    4  E_soc:     -0.0146360
 l=   1
     0.0000000    -0.0002673    -0.0002673
    -0.0002673     0.0000000    -0.0002673
    -0.0002673    -0.0002673     0.0000000
 l=   2
     0.0000000    -0.0004055     0.0000000    -0.0004055    -0.0017666
    -0.0004055     0.0000000    -0.0013502    -0.0004055    -0.0004164
     0.0000000    -0.0013502     0.0000000    -0.0012997     0.0000000
    -0.0004055    -0.0004055    -0.0012997     0.0000000    -0.0004669
    -0.0017666    -0.0004164     0.0000000    -0.0004669     0.0000000
 l=   3
     0.0000000     0.0000000     0.0000000     0.0000000     0.0000000     0.0000000     0.0000000
     0.0000000     0.0000000     0.0000000     0.0000000     0.0000000     0.0000000     0.0000000
     0.0000000     0.0000000     0.0000000     0.0000000     0.0000000     0.0000000     0.0000000
     0.0000000     0.0000000     0.0000000     0.0000000     0.0000000     0.0000000     0.0000000
     0.0000000     0.0000000     0.0000000     0.0000000     0.0000000     0.0000000     0.0000000
     0.0000000     0.0000000     0.0000000     0.0000000     0.0000000     0.0000000     0.0000000
     0.0000000     0.0000000     0.0000000     0.0000000     0.0000000     0.0000000     0.0000000

 Ion:    5  E_soc:     -0.0112854
 l=   1
     0.0000000    -0.0018396    -0.0018396
    -0.0018396     0.0000000    -0.0018396
    -0.0018396    -0.0018396     0.0000000
 l=   2
     0.0000000    -0.0000066     0.0000000    -0.0000066    -0.0000346
    -0.0000066     0.0000000    -0.0000256    -0.0000066    -0.0000090
     0.0000000    -0.0000256     0.0000000    -0.0000263     0.0000000
    -0.0000066    -0.0000066    -0.0000263     0.0000000    -0.0000083
    -0.0000346    -0.0000090     0.0000000    -0.0000083     0.0000000
 l=   3
     0.0000000     0.0000000     0.0000000     0.0000000     0.0000000     0.0000000     0.0000000
     0.0000000     0.0000000     0.0000000     0.0000000     0.0000000     0.0000000     0.0000000
     0.0000000     0.0000000     0.0000000     0.0000000     0.0000000     0.0000000     0.0000000
     0.0000000     0.0000000     0.0000000     0.0000000     0.0000000     0.0000000     0.0000000
     0.0000000     0.0000000     0.0000000     0.0000000     0.0000000     0.0000000     0.0000000
     0.0000000     0.0000000     0.0000000     0.0000000     0.0000000     0.0000000     0.0000000
     0.0000000     0.0000000     0.0000000     0.0000000     0.0000000     0.0000000     0.0000000

 Ion:    6  E_soc:     -0.0112854
 l=   1
     0.0000000    -0.0018396    -0.0018396
    -0.0018396     0.0000000    -0.0018396
    -0.0018396    -0.0018396     0.0000000
 l=   2
     0.0000000    -0.0000066     0.0000000    -0.0000066    -0.0000346
    -0.0000066     0.0000000    -0.0000256    -0.0000066    -0.0000090
     0.0000000    -0.0000256     0.0000000    -0.0000263     0.0000000
    -0.0000066    -0.0000066    -0.0000263     0.0000000    -0.0000083
    -0.0000346    -0.0000090     0.0000000    -0.0000083     0.0000000
 l=   3
     0.0000000     0.0000000     0.0000000     0.0000000     0.0000000     0.0000000     0.0000000
     0.0000000     0.0000000     0.0000000     0.0000000     0.0000000     0.0000000     0.0000000
     0.0000000     0.0000000     0.0000000     0.0000000     0.0000000     0.0000000     0.0000000
     0.0000000     0.0000000     0.0000000     0.0000000     0.0000000     0.0000000     0.0000000
     0.0000000     0.0000000     0.0000000     0.0000000     0.0000000     0.0000000     0.0000000
     0.0000000     0.0000000     0.0000000     0.0000000     0.0000000     0.0000000     0.0000000
     0.0000000     0.0000000     0.0000000     0.0000000     0.0000000     0.0000000     0.0000000

 Ion:    7  E_soc:     -0.0112854
 l=   1
     0.0000000    -0.0018396    -0.0018396
    -0.0018396     0.0000000    -0.0018396
    -0.0018396    -0.0018396     0.0000000
 l=   2
     0.0000000    -0.0000066     0.0000000    -0.0000066    -0.0000346
    -0.0000066     0.0000000    -0.0000256    -0.0000066    -0.0000090
     0.0000000    -0.0000256     0.0000000    -0.0000263     0.0000000
    -0.0000066    -0.0000066    -0.0000263     0.0000000    -0.0000083
    -0.0000346    -0.0000090     0.0000000    -0.0000083     0.0000000
 l=   3
     0.0000000     0.0000000     0.0000000     0.0000000     0.0000000     0.0000000     0.0000000
     0.0000000     0.0000000     0.0000000     0.0000000     0.0000000     0.0000000     0.0000000
     0.0000000     0.0000000     0.0000000     0.0000000     0.0000000     0.0000000     0.0000000
     0.0000000     0.0000000     0.0000000     0.0000000     0.0000000     0.0000000     0.0000000
     0.0000000     0.0000000     0.0000000     0.0000000     0.0000000     0.0000000     0.0000000
     0.0000000     0.0000000     0.0000000     0.0000000     0.0000000     0.0000000     0.0000000
     0.0000000     0.0000000     0.0000000     0.0000000     0.0000000     0.0000000     0.0000000

 Ion:    8  E_soc:     -0.0112854
 l=   1
     0.0000000    -0.0018396    -0.0018396
    -0.0018396     0.0000000    -0.0018396
    -0.0018396    -0.0018396     0.0000000
 l=   2
     0.0000000    -0.0000066     0.0000000    -0.0000066    -0.0000346
    -0.0000066     0.0000000    -0.0000256    -0.0000066    -0.0000090
     0.0000000    -0.0000256     0.0000000    -0.0000263     0.0000000
    -0.0000066    -0.0000066    -0.0000263     0.0000000    -0.0000083
    -0.0000346    -0.0000090     0.0000000    -0.0000083     0.0000000
 l=   3
     0.0000000     0.0000000     0.0000000     0.0000000     0.0000000     0.0000000     0.0000000
     0.0000000     0.0000000     0.0000000     0.0000000     0.0000000     0.0000000     0.0000000
     0.0000000     0.0000000     0.0000000     0.0000000     0.0000000     0.0000000     0.0000000
     0.0000000     0.0000000     0.0000000     0.0000000     0.0000000     0.0000000     0.0000000
     0.0000000     0.0000000     0.0000000     0.0000000     0.0000000     0.0000000     0.0000000
     0.0000000     0.0000000     0.0000000     0.0000000     0.0000000     0.0000000     0.0000000
     0.0000000     0.0000000     0.0000000     0.0000000     0.0000000     0.0000000     0.0000000



 total charge

# of ion       s       p       d       tot
------------------------------------------
    1        0.389   0.477   7.536   8.403
    2        0.389   0.477   7.536   8.403
    3        0.389   0.477   7.536   8.403
    4        0.389   0.477   7.536   8.403
    5        1.106   1.206   0.148   2.460
    6        1.106   1.206   0.148   2.460
    7        1.106   1.206   0.148   2.460
    8        1.106   1.206   0.148   2.460
--------------------------------------------------
tot          5.982   6.734  30.735  43.451



 magnetization (x)

# of ion       s       p       d       tot
------------------------------------------
    1       -0.000   0.000  -0.000  -0.000
    2       -0.000   0.000  -0.000  -0.000
    3        0.000  -0.000   0.000   0.000
    4        0.000  -0.000   0.000   0.000
    5        0.000  -0.000  -0.000   0.000
    6        0.000  -0.000  -0.000   0.000
    7       -0.000   0.000   0.000  -0.000
    8       -0.000   0.000   0.000  -0.000
--------------------------------------------------
tot          0.000  -0.000   0.000   0.000



 magnetization (y)

# of ion       s       p       d       tot
------------------------------------------
    1       -0.000   0.000  -0.000  -0.000
    2        0.000  -0.000   0.000   0.000
    3       -0.000   0.000  -0.000  -0.000
    4        0.000  -0.000   0.000   0.000
    5        0.000  -0.000  -0.000   0.000
    6       -0.000   0.000   0.000  -0.000
    7        0.000  -0.000  -0.000   0.000
    8       -0.000   0.000   0.000  -0.000
--------------------------------------------------
tot         -0.000   0.000   0.000   0.000



 magnetization (z)

# of ion       s       p       d       tot
------------------------------------------
    1       -0.000   0.000  -0.000  -0.000
    2        0.000  -0.000   0.000   0.000
    3        0.000  -0.000   0.000   0.000
    4       -0.000   0.000  -0.000  -0.000
    5        0.000  -0.000  -0.000   0.000
    6       -0.000   0.000   0.000  -0.000
    7       -0.000   0.000   0.000  -0.000
    8        0.000  -0.000  -0.000   0.000
--------------------------------------------------
tot          0.000  -0.000   0.000   0.000
 

 total amount of memory used by VASP MPI-rank0   858553. kBytes
=======================================================================

   base      :      30000. kBytes
   nonl-proj :     349417. kBytes
   fftplans  :       6437. kBytes
   grid      :      29696. kBytes
   one-center:        497. kBytes
   wavefun   :     442506. kBytes
 
  
  
 General timing and accounting informations for this job:
 ========================================================
  
                  Total CPU time used (sec):     1396.252
                            User time (sec):     1108.775
                          System time (sec):      287.477
                         Elapsed time (sec):     1408.801
  
                   Maximum memory used (kb):      913948.
                   Average memory used (kb):          N/A
  
                          Minor page faults:      2805211
                          Major page faults:          297
                 Voluntary context switches:        21124
