# energy dos(up) dos(down)
-1.556815809999999978e+01 0.000000000000000000e+00 -0.000000000000000000e+00
-1.556015809999999888e+01 0.000000000000000000e+00 -0.000000000000000000e+00
-1.555225809999999953e+01 0.000000000000000000e+00 -0.000000000000000000e+00
-1.554435810000000018e+01 0.000000000000000000e+00 -0.000000000000000000e+00
-1.553635810000000106e+01 0.000000000000000000e+00 -0.000000000000000000e+00
-1.552845809999999993e+01 0.000000000000000000e+00 -0.000000000000000000e+00
-1.552055809999999880e+01 0.000000000000000000e+00 -0.000000000000000000e+00
-1.551255809999999968e+01 0.000000000000000000e+00 -0.000000000000000000e+00
-1.550465810000000033e+01 0.000000000000000000e+00 -0.000000000000000000e+00
-1.549675810000000098e+01 0.000000000000000000e+00 -0.000000000000000000e+00
-1.548875810000000008e+01 0.000000000000000000e+00 -0.000000000000000000e+00
-1.548085809999999896e+01 0.000000000000000000e+00 -0.000000000000000000e+00
-1.547295809999999960e+01 0.000000000000000000e+00 -0.000000000000000000e+00
-1.546505810000000025e+01 0.000000000000000000e+00 -0.000000000000000000e+00
-1.545705810000000113e+01 0.000000000000000000e+00 -0.000000000000000000e+00
-1.544915810000000000e+01 0.000000000000000000e+00 -0.000000000000000000e+00
-1.544125809999999888e+01 0.000000000000000000e+00 -0.000000000000000000e+00
-1.543325809999999976e+01 0.000000000000000000e+00 -0.000000000000000000e+00
-1.542535810000000041e+01 0.000000000000000000e+00 -0.000000000000000000e+00
-1.541745810000000105e+01 0.000000000000000000e+00 -0.000000000000000000e+00
-1.540945810000000016e+01 0.000000000000000000e+00 -0.000000000000000000e+00
-1.540155809999999903e+01 0.000000000000000000e+00 -0.000000000000000000e+00
-1.539365809999999968e+01 0.000000000000000000e+00 -0.000000000000000000e+00
-1.538565810000000056e+01 0.000000000000000000e+00 -0.000000000000000000e+00
-1.537775810000000121e+01 0.000000000000000000e+00 -0.000000000000000000e+00
-1.536985810000000008e+01 0.000000000000000000e+00 -0.000000000000000000e+00
-1.536185809999999918e+01 0.000000000000000000e+00 -0.000000000000000000e+00
-1.535395809999999983e+01 0.000000000000000000e+00 -0.000000000000000000e+00
-1.534605810000000048e+01 0.000000000000000000e+00 -0.000000000000000000e+00
-1.533805809999999958e+01 0.000000000000000000e+00 -0.000000000000000000e+00
-1.533015810000000023e+01 0.000000000000000000e+00 -0.000000000000000000e+00
-1.532225809999999910e+01 0.000000000000000000e+00 -0.000000000000000000e+00
-1.531425809999999998e+01 0.000000000000000000e+00 -0.000000000000000000e+00
-1.530635810000000063e+01 0.000000000000000000e+00 -0.000000000000000000e+00
-1.529845810000000128e+01 0.000000000000000000e+00 -0.000000000000000000e+00
-1.529045810000000039e+01 0.000000000000000000e+00 -0.000000000000000000e+00
-1.528255809999999926e+01 0.000000000000000000e+00 -0.000000000000000000e+00
-1.527465809999999991e+01 0.000000000000000000e+00 -0.000000000000000000e+00
-1.526665810000000079e+01 0.000000000000000000e+00 -0.000000000000000000e+00
-1.525875809999999966e+01 0.000000000000000000e+00 -0.000000000000000000e+00
-1.525085810000000031e+01 0.000000000000000000e+00 -0.000000000000000000e+00
-1.524285809999999941e+01 0.000000000000000000e+00 -0.000000000000000000e+00
-1.523495810000000006e+01 0.000000000000000000e+00 -0.000000000000000000e+00
-1.522705810000000071e+01 0.000000000000000000e+00 -0.000000000000000000e+00
-1.521905809999999981e+01 0.000000000000000000e+00 -0.000000000000000000e+00
-1.521115809999999868e+01 0.000000000000000000e+00 -0.000000000000000000e+00
-1.520325809999999933e+01 0.000000000000000000e+00 -0.000000000000000000e+00
-1.519525810000000021e+01 0.000000000000000000e+00 -0.000000000000000000e+00
-1.518735810000000086e+01 0.000000000000000000e+00 -0.000000000000000000e+00
-1.517945809999999973e+01 0.000000000000000000e+00 -0.000000000000000000e+00
-1.517145809999999884e+01 0.000000000000000000e+00 -0.000000000000000000e+00
-1.516355809999999948e+01 0.000000000000000000e+00 -0.000000000000000000e+00
-1.515565810000000013e+01 0.000000000000000000e+00 -0.000000000000000000e+00
-1.514765810000000101e+01 0.000000000000000000e+00 -0.000000000000000000e+00
-1.513975809999999989e+01 0.000000000000000000e+00 -0.000000000000000000e+00
-1.513185809999999876e+01 0.000000000000000000e+00 -0.000000000000000000e+00
-1.512385809999999964e+01 0.000000000000000000e+00 -0.000000000000000000e+00
-1.511595810000000029e+01 0.000000000000000000e+00 -0.000000000000000000e+00
-1.510805810000000093e+01 0.000000000000000000e+00 -0.000000000000000000e+00
-1.510005810000000004e+01 0.000000000000000000e+00 -0.000000000000000000e+00
-1.509215809999999891e+01 0.000000000000000000e+00 -0.000000000000000000e+00
-1.508425809999999956e+01 0.000000000000000000e+00 -0.000000000000000000e+00
-1.507625810000000044e+01 0.000000000000000000e+00 -0.000000000000000000e+00
-1.506835810000000109e+01 0.000000000000000000e+00 -0.000000000000000000e+00
-1.506045809999999996e+01 0.000000000000000000e+00 -0.000000000000000000e+00
-1.505245809999999906e+01 0.000000000000000000e+00 -0.000000000000000000e+00
-1.504455809999999971e+01 0.000000000000000000e+00 -0.000000000000000000e+00
-1.503665810000000036e+01 0.000000000000000000e+00 -0.000000000000000000e+00
-1.502865810000000124e+01 0.000000000000000000e+00 -0.000000000000000000e+00
-1.502075810000000011e+01 0.000000000000000000e+00 -0.000000000000000000e+00
-1.501285809999999898e+01 0.000000000000000000e+00 -0.000000000000000000e+00
-1.500495809999999963e+01 0.000000000000000000e+00 -0.000000000000000000e+00
-1.499695810000000051e+01 0.000000000000000000e+00 -0.000000000000000000e+00
-1.498905810000000116e+01 0.000000000000000000e+00 -0.000000000000000000e+00
-1.498115810000000003e+01 0.000000000000000000e+00 -0.000000000000000000e+00
-1.497315809999999914e+01 0.000000000000000000e+00 -0.000000000000000000e+00
-1.496525809999999979e+01 0.000000000000000000e+00 -0.000000000000000000e+00
-1.495735810000000043e+01 0.000000000000000000e+00 -0.000000000000000000e+00
-1.494935809999999954e+01 0.000000000000000000e+00 -0.000000000000000000e+00
-1.494145810000000019e+01 0.000000000000000000e+00 -0.000000000000000000e+00
-1.493355809999999906e+01 0.000000000000000000e+00 -0.000000000000000000e+00
-1.492555809999999994e+01 0.000000000000000000e+00 -0.000000000000000000e+00
-1.491765810000000059e+01 0.000000000000000000e+00 -0.000000000000000000e+00
-1.490975810000000124e+01 0.000000000000000000e+00 -0.000000000000000000e+00
-1.490175810000000034e+01 0.000000000000000000e+00 -0.000000000000000000e+00
-1.489385809999999921e+01 0.000000000000000000e+00 -0.000000000000000000e+00
-1.488595809999999986e+01 0.000000000000000000e+00 -0.000000000000000000e+00
-1.487795810000000074e+01 0.000000000000000000e+00 -0.000000000000000000e+00
-1.487005809999999961e+01 0.000000000000000000e+00 -0.000000000000000000e+00
-1.486215810000000026e+01 0.000000000000000000e+00 -0.000000000000000000e+00
-1.485415809999999937e+01 0.000000000000000000e+00 -0.000000000000000000e+00
-1.484625810000000001e+01 0.000000000000000000e+00 -0.000000000000000000e+00
-1.483835810000000066e+01 0.000000000000000000e+00 -0.000000000000000000e+00
-1.483035809999999977e+01 0.000000000000000000e+00 -0.000000000000000000e+00
-1.482245809999999864e+01 0.000000000000000000e+00 -0.000000000000000000e+00
-1.481455809999999929e+01 0.000000000000000000e+00 -0.000000000000000000e+00
-1.480655810000000017e+01 0.000000000000000000e+00 -0.000000000000000000e+00
-1.479865810000000081e+01 0.000000000000000000e+00 -0.000000000000000000e+00
-1.479075809999999969e+01 0.000000000000000000e+00 -0.000000000000000000e+00
-1.478275809999999879e+01 0.000000000000000000e+00 -0.000000000000000000e+00
-1.477485809999999944e+01 0.000000000000000000e+00 -0.000000000000000000e+00
-1.476695810000000009e+01 0.000000000000000000e+00 -0.000000000000000000e+00
-1.475895810000000097e+01 0.000000000000000000e+00 -0.000000000000000000e+00
-1.475105809999999984e+01 0.000000000000000000e+00 -0.000000000000000000e+00
-1.474315809999999871e+01 0.000000000000000000e+00 -0.000000000000000000e+00
-1.473515809999999959e+01 0.000000000000000000e+00 -0.000000000000000000e+00
-1.472725810000000024e+01 0.000000000000000000e+00 -0.000000000000000000e+00
-1.471935810000000089e+01 0.000000000000000000e+00 -0.000000000000000000e+00
-1.471135809999999999e+01 0.000000000000000000e+00 -0.000000000000000000e+00
-1.470345809999999886e+01 0.000000000000000000e+00 -0.000000000000000000e+00
-1.469555809999999951e+01 0.000000000000000000e+00 -0.000000000000000000e+00
-1.468755810000000039e+01 0.000000000000000000e+00 -0.000000000000000000e+00
-1.467965810000000104e+01 0.000000000000000000e+00 -0.000000000000000000e+00
-1.467175809999999991e+01 0.000000000000000000e+00 -0.000000000000000000e+00
-1.466375809999999902e+01 0.000000000000000000e+00 -0.000000000000000000e+00
-1.465585809999999967e+01 0.000000000000000000e+00 -0.000000000000000000e+00
-1.464795810000000031e+01 0.000000000000000000e+00 -0.000000000000000000e+00
-1.463995810000000120e+01 0.000000000000000000e+00 -0.000000000000000000e+00
-1.463205810000000007e+01 0.000000000000000000e+00 -0.000000000000000000e+00
-1.462415809999999894e+01 0.000000000000000000e+00 -0.000000000000000000e+00
-1.461615809999999982e+01 0.000000000000000000e+00 -0.000000000000000000e+00
-1.460825810000000047e+01 0.000000000000000000e+00 -0.000000000000000000e+00
-1.460035810000000112e+01 0.000000000000000000e+00 -0.000000000000000000e+00
-1.459235810000000022e+01 0.000000000000000000e+00 -0.000000000000000000e+00
-1.458445809999999909e+01 0.000000000000000000e+00 -0.000000000000000000e+00
-1.457655809999999974e+01 0.000000000000000000e+00 -0.000000000000000000e+00
-1.456865810000000039e+01 0.000000000000000000e+00 -0.000000000000000000e+00
-1.456065810000000127e+01 0.000000000000000000e+00 -0.000000000000000000e+00
-1.455275810000000014e+01 0.000000000000000000e+00 -0.000000000000000000e+00
-1.454485809999999901e+01 0.000000000000000000e+00 -0.000000000000000000e+00
-1.453685809999999989e+01 0.000000000000000000e+00 -0.000000000000000000e+00
-1.452895810000000054e+01 0.000000000000000000e+00 -0.000000000000000000e+00
-1.452105810000000119e+01 0.000000000000000000e+00 -0.000000000000000000e+00
-1.451305810000000029e+01 0.000000000000000000e+00 -0.000000000000000000e+00
-1.450515809999999917e+01 0.000000000000000000e+00 -0.000000000000000000e+00
-1.449725809999999981e+01 0.000000000000000000e+00 -0.000000000000000000e+00
-1.448925810000000070e+01 0.000000000000000000e+00 -0.000000000000000000e+00
-1.448135809999999957e+01 0.000000000000000000e+00 -0.000000000000000000e+00
-1.447345810000000021e+01 0.000000000000000000e+00 -0.000000000000000000e+00
-1.446545809999999932e+01 0.000000000000000000e+00 -0.000000000000000000e+00
-1.445755809999999997e+01 0.000000000000000000e+00 -0.000000000000000000e+00
-1.444965810000000062e+01 0.000000000000000000e+00 -0.000000000000000000e+00
-1.444165809999999972e+01 0.000000000000000000e+00 -0.000000000000000000e+00
-1.443375810000000037e+01 0.000000000000000000e+00 -0.000000000000000000e+00
-1.442585809999999924e+01 0.000000000000000000e+00 -0.000000000000000000e+00
-1.441785810000000012e+01 0.000000000000000000e+00 -0.000000000000000000e+00
-1.440995810000000077e+01 0.000000000000000000e+00 -0.000000000000000000e+00
-1.440205809999999964e+01 0.000000000000000000e+00 -0.000000000000000000e+00
-1.439405809999999875e+01 0.000000000000000000e+00 -0.000000000000000000e+00
-1.438615809999999939e+01 0.000000000000000000e+00 -0.000000000000000000e+00
-1.437825810000000004e+01 0.000000000000000000e+00 -0.000000000000000000e+00
-1.437025810000000092e+01 0.000000000000000000e+00 -0.000000000000000000e+00
-1.436235809999999979e+01 0.000000000000000000e+00 -0.000000000000000000e+00
-1.435445809999999867e+01 0.000000000000000000e+00 -0.000000000000000000e+00
-1.434645809999999955e+01 0.000000000000000000e+00 -0.000000000000000000e+00
-1.433855810000000019e+01 0.000000000000000000e+00 -0.000000000000000000e+00
-1.433065810000000084e+01 0.000000000000000000e+00 -0.000000000000000000e+00
-1.432265809999999995e+01 0.000000000000000000e+00 -0.000000000000000000e+00
-1.431475809999999882e+01 0.000000000000000000e+00 -0.000000000000000000e+00
-1.430685809999999947e+01 0.000000000000000000e+00 -0.000000000000000000e+00
-1.429885810000000035e+01 0.000000000000000000e+00 -0.000000000000000000e+00
-1.429095810000000100e+01 0.000000000000000000e+00 -0.000000000000000000e+00
-1.428305809999999987e+01 0.000000000000000000e+00 -0.000000000000000000e+00
-1.427505809999999897e+01 0.000000000000000000e+00 -0.000000000000000000e+00
-1.426715809999999962e+01 0.000000000000000000e+00 -0.000000000000000000e+00
-1.425925810000000027e+01 0.000000000000000000e+00 -0.000000000000000000e+00
-1.425125810000000115e+01 0.000000000000000000e+00 -0.000000000000000000e+00
-1.424335810000000002e+01 0.000000000000000000e+00 -0.000000000000000000e+00
-1.423545809999999889e+01 0.000000000000000000e+00 -0.000000000000000000e+00
-1.422745809999999977e+01 0.000000000000000000e+00 -0.000000000000000000e+00
-1.421955810000000042e+01 0.000000000000000000e+00 -0.000000000000000000e+00
-1.421165810000000107e+01 0.000000000000000000e+00 -0.000000000000000000e+00
-1.420365810000000018e+01 0.000000000000000000e+00 -0.000000000000000000e+00
-1.419575809999999905e+01 0.000000000000000000e+00 -0.000000000000000000e+00
-1.418785809999999969e+01 0.000000000000000000e+00 -0.000000000000000000e+00
-1.417985810000000058e+01 0.000000000000000000e+00 -0.000000000000000000e+00
-1.417195810000000122e+01 0.000000000000000000e+00 -0.000000000000000000e+00
-1.416405810000000010e+01 0.000000000000000000e+00 -0.000000000000000000e+00
-1.415605809999999920e+01 0.000000000000000000e+00 -0.000000000000000000e+00
-1.414815809999999985e+01 0.000000000000000000e+00 -0.000000000000000000e+00
-1.414025810000000050e+01 0.000000000000000000e+00 -0.000000000000000000e+00
-1.413235810000000114e+01 0.000000000000000000e+00 -0.000000000000000000e+00
-1.412435810000000025e+01 0.000000000000000000e+00 -0.000000000000000000e+00
-1.411645809999999912e+01 0.000000000000000000e+00 -0.000000000000000000e+00
-1.410855809999999977e+01 0.000000000000000000e+00 -0.000000000000000000e+00
-1.410055810000000065e+01 0.000000000000000000e+00 -0.000000000000000000e+00
-1.409265809999999952e+01 0.000000000000000000e+00 -0.000000000000000000e+00
-1.408475810000000017e+01 0.000000000000000000e+00 -0.000000000000000000e+00
-1.407675809999999927e+01 0.000000000000000000e+00 -0.000000000000000000e+00
-1.406885809999999992e+01 0.000000000000000000e+00 -0.000000000000000000e+00
-1.406095810000000057e+01 0.000000000000000000e+00 -0.000000000000000000e+00
-1.405295809999999967e+01 0.000000000000000000e+00 -0.000000000000000000e+00
-1.404505810000000032e+01 0.000000000000000000e+00 -0.000000000000000000e+00
-1.403715809999999919e+01 0.000000000000000000e+00 -0.000000000000000000e+00
-1.402915810000000008e+01 0.000000000000000000e+00 -0.000000000000000000e+00
-1.402125810000000072e+01 0.000000000000000000e+00 -0.000000000000000000e+00
-1.401335809999999960e+01 0.000000000000000000e+00 -0.000000000000000000e+00
-1.400535809999999870e+01 0.000000000000000000e+00 -0.000000000000000000e+00
-1.399745809999999935e+01 0.000000000000000000e+00 -0.000000000000000000e+00
-1.398955810000000000e+01 0.000000000000000000e+00 -0.000000000000000000e+00
-1.398155810000000088e+01 0.000000000000000000e+00 -0.000000000000000000e+00
-1.397365809999999975e+01 0.000000000000000000e+00 -0.000000000000000000e+00
-1.396575810000000040e+01 0.000000000000000000e+00 -0.000000000000000000e+00
-1.395775809999999950e+01 0.000000000000000000e+00 -0.000000000000000000e+00
-1.394985810000000015e+01 0.000000000000000000e+00 -0.000000000000000000e+00
-1.394195810000000080e+01 0.000000000000000000e+00 -0.000000000000000000e+00
-1.393395809999999990e+01 0.000000000000000000e+00 -0.000000000000000000e+00
-1.392605809999999877e+01 0.000000000000000000e+00 -0.000000000000000000e+00
-1.391815809999999942e+01 0.000000000000000000e+00 -0.000000000000000000e+00
-1.391015810000000030e+01 0.000000000000000000e+00 -0.000000000000000000e+00
-1.390225810000000095e+01 0.000000000000000000e+00 -0.000000000000000000e+00
-1.389435809999999982e+01 0.000000000000000000e+00 -0.000000000000000000e+00
-1.388635809999999893e+01 0.000000000000000000e+00 -0.000000000000000000e+00
-1.387845809999999958e+01 0.000000000000000000e+00 -0.000000000000000000e+00
-1.387055810000000022e+01 0.000000000000000000e+00 -0.000000000000000000e+00
-1.386255810000000110e+01 0.000000000000000000e+00 -0.000000000000000000e+00
-1.385465809999999998e+01 0.000000000000000000e+00 -0.000000000000000000e+00
-1.384675809999999885e+01 0.000000000000000000e+00 -0.000000000000000000e+00
-1.383875809999999973e+01 0.000000000000000000e+00 -0.000000000000000000e+00
-1.383085810000000038e+01 0.000000000000000000e+00 -0.000000000000000000e+00
-1.382295810000000102e+01 0.000000000000000000e+00 -0.000000000000000000e+00
-1.381495810000000013e+01 0.000000000000000000e+00 -0.000000000000000000e+00
-1.380705809999999900e+01 0.000000000000000000e+00 -0.000000000000000000e+00
-1.379915809999999965e+01 0.000000000000000000e+00 -0.000000000000000000e+00
-1.379115810000000053e+01 0.000000000000000000e+00 -0.000000000000000000e+00
-1.378325810000000118e+01 0.000000000000000000e+00 -0.000000000000000000e+00
-1.377535810000000005e+01 0.000000000000000000e+00 -0.000000000000000000e+00
-1.376735809999999915e+01 0.000000000000000000e+00 -0.000000000000000000e+00
-1.375945809999999980e+01 0.000000000000000000e+00 -0.000000000000000000e+00
-1.375155810000000045e+01 0.000000000000000000e+00 -0.000000000000000000e+00
-1.374355809999999956e+01 0.000000000000000000e+00 -0.000000000000000000e+00
-1.373565810000000020e+01 0.000000000000000000e+00 -0.000000000000000000e+00
-1.372775809999999908e+01 0.000000000000000000e+00 -0.000000000000000000e+00
-1.371975809999999996e+01 0.000000000000000000e+00 -0.000000000000000000e+00
-1.371185810000000060e+01 0.000000000000000000e+00 -0.000000000000000000e+00
-1.370395810000000125e+01 0.000000000000000000e+00 -0.000000000000000000e+00
-1.369595810000000036e+01 0.000000000000000000e+00 -0.000000000000000000e+00
-1.368805809999999923e+01 0.000000000000000000e+00 -0.000000000000000000e+00
-1.368015809999999988e+01 0.000000000000000000e+00 -0.000000000000000000e+00
-1.367225810000000052e+01 0.000000000000000000e+00 -0.000000000000000000e+00
-1.366425809999999963e+01 0.000000000000000000e+00 -0.000000000000000000e+00
-1.365635810000000028e+01 0.000000000000000000e+00 -0.000000000000000000e+00
-1.364845809999999915e+01 0.000000000000000000e+00 -0.000000000000000000e+00
-1.364045810000000003e+01 0.000000000000000000e+00 -0.000000000000000000e+00
-1.363255810000000068e+01 0.000000000000000000e+00 -0.000000000000000000e+00
-1.362465809999999955e+01 0.000000000000000000e+00 -0.000000000000000000e+00
-1.361665809999999865e+01 0.000000000000000000e+00 -0.000000000000000000e+00
-1.360875809999999930e+01 0.000000000000000000e+00 -0.000000000000000000e+00
-1.360085809999999995e+01 0.000000000000000000e+00 -0.000000000000000000e+00
-1.359285810000000083e+01 0.000000000000000000e+00 -0.000000000000000000e+00
-1.358495809999999970e+01 0.000000000000000000e+00 -0.000000000000000000e+00
-1.357705810000000035e+01 0.000000000000000000e+00 -0.000000000000000000e+00
-1.356905809999999946e+01 0.000000000000000000e+00 -0.000000000000000000e+00
-1.356115810000000010e+01 2.000000000000000042e-03 -2.000000000000000042e-03
-1.355325810000000075e+01 9.400000000000000369e-03 -9.400000000000000369e-03
-1.354525809999999986e+01 2.189999999999999933e-02 -2.189999999999999933e-02
-1.353735809999999873e+01 3.980000000000000204e-02 -3.980000000000000204e-02
-1.352945809999999938e+01 5.729999999999999677e-02 -5.729999999999999677e-02
-1.352145810000000026e+01 6.940000000000000335e-02 -6.940000000000000335e-02
-1.351355810000000091e+01 7.630000000000000671e-02 -7.630000000000000671e-02
-1.350565809999999978e+01 7.810000000000000275e-02 -7.810000000000000275e-02
-1.349765809999999888e+01 7.929999999999999549e-02 -7.929999999999999549e-02
-1.348975809999999953e+01 8.240000000000000102e-02 -8.240000000000000102e-02
-1.348185810000000018e+01 8.719999999999999973e-02 -8.719999999999999973e-02
-1.347385810000000106e+01 9.370000000000000551e-02 -9.370000000000000551e-02
-1.346595809999999993e+01 1.006999999999999978e-01 -1.006999999999999978e-01
-1.345805809999999880e+01 1.078999999999999959e-01 -1.078999999999999959e-01
-1.345005809999999968e+01 1.152999999999999997e-01 -1.152999999999999997e-01
-1.344215810000000033e+01 1.226000000000000006e-01 -1.226000000000000006e-01
-1.343425810000000098e+01 1.282000000000000084e-01 -1.282000000000000084e-01
-1.342625810000000008e+01 1.318000000000000005e-01 -1.318000000000000005e-01
-1.341835809999999896e+01 1.335000000000000075e-01 -1.335000000000000075e-01
-1.341045809999999960e+01 1.340999999999999970e-01 -1.340999999999999970e-01
-1.340245810000000048e+01 1.353999999999999926e-01 -1.353999999999999926e-01
-1.339455810000000113e+01 1.376999999999999891e-01 -1.376999999999999891e-01
-1.338665810000000000e+01 1.408999999999999975e-01 -1.408999999999999975e-01
-1.337865809999999911e+01 1.446000000000000063e-01 -1.446000000000000063e-01
-1.337075809999999976e+01 1.481999999999999984e-01 -1.481999999999999984e-01
-1.336285810000000041e+01 1.517999999999999905e-01 -1.517999999999999905e-01
-1.335485810000000129e+01 1.554000000000000103e-01 -1.554000000000000103e-01
-1.334695810000000016e+01 1.589000000000000135e-01 -1.589000000000000135e-01
-1.333905809999999903e+01 1.623999999999999888e-01 -1.623999999999999888e-01
-1.333105809999999991e+01 1.658999999999999919e-01 -1.658999999999999919e-01
-1.332315810000000056e+01 1.693000000000000060e-01 -1.693000000000000060e-01
-1.331525810000000121e+01 1.728999999999999981e-01 -1.728999999999999981e-01
-1.330725810000000031e+01 1.768000000000000127e-01 -1.768000000000000127e-01
-1.329935809999999918e+01 1.809000000000000052e-01 -1.809000000000000052e-01
-1.329145809999999983e+01 1.850999999999999868e-01 -1.850999999999999868e-01
-1.328345810000000071e+01 1.885999999999999899e-01 -1.885999999999999899e-01
-1.327555809999999958e+01 1.912999999999999978e-01 -1.912999999999999978e-01
-1.326765810000000023e+01 1.930999999999999939e-01 -1.930999999999999939e-01
-1.325965809999999934e+01 1.943999999999999895e-01 -1.943999999999999895e-01
-1.325175809999999998e+01 1.958999999999999908e-01 -1.958999999999999908e-01
-1.324385810000000063e+01 1.978000000000000036e-01 -1.978000000000000036e-01
-1.323595810000000128e+01 2.001000000000000001e-01 -2.001000000000000001e-01
-1.322795810000000039e+01 2.025000000000000133e-01 -2.025000000000000133e-01
-1.322005809999999926e+01 2.048999999999999988e-01 -2.048999999999999988e-01
-1.321215809999999991e+01 2.073000000000000120e-01 -2.073000000000000120e-01
-1.320415810000000079e+01 2.096000000000000085e-01 -2.096000000000000085e-01
-1.319625809999999966e+01 2.119000000000000050e-01 -2.119000000000000050e-01
-1.318835810000000031e+01 2.141000000000000125e-01 -2.141000000000000125e-01
-1.318035809999999941e+01 2.162000000000000033e-01 -2.162000000000000033e-01
-1.317245810000000006e+01 2.182999999999999940e-01 -2.182999999999999940e-01
-1.316455810000000071e+01 2.205999999999999905e-01 -2.205999999999999905e-01
-1.315655809999999981e+01 2.230999999999999928e-01 -2.230999999999999928e-01
-1.314865809999999868e+01 2.257000000000000117e-01 -2.257000000000000117e-01
-1.314075809999999933e+01 2.285999999999999976e-01 -2.285999999999999976e-01
-1.313275810000000021e+01 2.313999999999999946e-01 -2.313999999999999946e-01
-1.312485810000000086e+01 2.341999999999999915e-01 -2.341999999999999915e-01
-1.311695809999999973e+01 2.371000000000000052e-01 -2.371000000000000052e-01
-1.310895809999999884e+01 2.399999999999999911e-01 -2.399999999999999911e-01
-1.310105809999999948e+01 2.429999999999999938e-01 -2.429999999999999938e-01
-1.309315810000000013e+01 2.459000000000000075e-01 -2.459000000000000075e-01
-1.308515810000000101e+01 2.489000000000000101e-01 -2.489000000000000101e-01
-1.307725809999999989e+01 2.516999999999999793e-01 -2.516999999999999793e-01
-1.306935809999999876e+01 2.539000000000000146e-01 -2.539000000000000146e-01
-1.306135809999999964e+01 2.556999999999999829e-01 -2.556999999999999829e-01
-1.305345810000000029e+01 2.570000000000000062e-01 -2.570000000000000062e-01
-1.304555810000000093e+01 2.581999999999999851e-01 -2.581999999999999851e-01
-1.303755810000000004e+01 2.596999999999999864e-01 -2.596999999999999864e-01
-1.302965809999999891e+01 2.612999999999999767e-01 -2.612999999999999767e-01
-1.302175809999999956e+01 2.631000000000000005e-01 -2.631000000000000005e-01
-1.301375810000000044e+01 2.650000000000000133e-01 -2.650000000000000133e-01
-1.300585809999999931e+01 2.667999999999999816e-01 -2.667999999999999816e-01
-1.299795809999999996e+01 2.686000000000000054e-01 -2.686000000000000054e-01
-1.298995809999999906e+01 2.705000000000000182e-01 -2.705000000000000182e-01
-1.298205809999999971e+01 2.722999999999999865e-01 -2.722999999999999865e-01
-1.297415810000000036e+01 2.741000000000000103e-01 -2.741000000000000103e-01
-1.296615809999999946e+01 2.758999999999999786e-01 -2.758999999999999786e-01
-1.295825810000000011e+01 2.777000000000000024e-01 -2.777000000000000024e-01
-1.295035809999999898e+01 2.796000000000000152e-01 -2.796000000000000152e-01
-1.294235809999999987e+01 2.816000000000000170e-01 -2.816000000000000170e-01
-1.293445810000000051e+01 2.837000000000000077e-01 -2.837000000000000077e-01
-1.292655809999999938e+01 2.857999999999999985e-01 -2.857999999999999985e-01
-1.291855810000000027e+01 2.879999999999999782e-01 -2.879999999999999782e-01
-1.291065809999999914e+01 2.902000000000000135e-01 -2.902000000000000135e-01
-1.290275809999999979e+01 2.923000000000000043e-01 -2.923000000000000043e-01
-1.289475810000000067e+01 2.944999999999999840e-01 -2.944999999999999840e-01
-1.288685809999999954e+01 2.967000000000000193e-01 -2.967000000000000193e-01
-1.287895810000000019e+01 2.988999999999999990e-01 -2.988999999999999990e-01
-1.287095809999999929e+01 3.010999999999999788e-01 -3.010999999999999788e-01
-1.286305809999999994e+01 3.033000000000000140e-01 -3.033000000000000140e-01
-1.285515810000000059e+01 3.054999999999999938e-01 -3.054999999999999938e-01
-1.284715809999999969e+01 3.076999999999999735e-01 -3.076999999999999735e-01
-1.283925810000000034e+01 3.099000000000000088e-01 -3.099000000000000088e-01
-1.283135809999999921e+01 3.120999999999999885e-01 -3.120999999999999885e-01
-1.282335810000000009e+01 3.143000000000000238e-01 -3.143000000000000238e-01
-1.281545810000000074e+01 3.165000000000000036e-01 -3.165000000000000036e-01
-1.280755809999999961e+01 3.185999999999999943e-01 -3.185999999999999943e-01
-1.279965810000000026e+01 3.202999999999999736e-01 -3.202999999999999736e-01
-1.279165809999999937e+01 3.219000000000000195e-01 -3.219000000000000195e-01
-1.278375810000000001e+01 3.230999999999999983e-01 -3.230999999999999983e-01
-1.277585810000000066e+01 3.245000000000000107e-01 -3.245000000000000107e-01
-1.276785809999999977e+01 3.261000000000000010e-01 -3.261000000000000010e-01
-1.275995810000000041e+01 3.276999999999999913e-01 -3.276999999999999913e-01
-1.275205809999999929e+01 3.294000000000000261e-01 -3.294000000000000261e-01
-1.274405810000000017e+01 3.311000000000000054e-01 -3.311000000000000054e-01
-1.273615810000000081e+01 3.327999999999999847e-01 -3.327999999999999847e-01
-1.272825809999999969e+01 3.343999999999999750e-01 -3.343999999999999750e-01
-1.272025810000000057e+01 3.360000000000000209e-01 -3.360000000000000209e-01
-1.271235809999999944e+01 3.376000000000000112e-01 -3.376000000000000112e-01
-1.270445810000000009e+01 3.392000000000000015e-01 -3.392000000000000015e-01
-1.269645810000000097e+01 3.407999999999999918e-01 -3.407999999999999918e-01
-1.268855809999999984e+01 3.423999999999999821e-01 -3.423999999999999821e-01
-1.268065810000000049e+01 3.441000000000000170e-01 -3.441000000000000170e-01
-1.267265809999999959e+01 3.457999999999999963e-01 -3.457999999999999963e-01
-1.266475810000000024e+01 3.476000000000000201e-01 -3.476000000000000201e-01
-1.265685810000000089e+01 3.492999999999999994e-01 -3.492999999999999994e-01
-1.264885809999999999e+01 3.511000000000000232e-01 -3.511000000000000232e-01
-1.264095809999999886e+01 3.528999999999999915e-01 -3.528999999999999915e-01
-1.263305809999999951e+01 3.546000000000000263e-01 -3.546000000000000263e-01
-1.262505810000000039e+01 3.563999999999999946e-01 -3.563999999999999946e-01
-1.261715810000000104e+01 3.582000000000000184e-01 -3.582000000000000184e-01
-1.260925809999999991e+01 3.598999999999999977e-01 -3.598999999999999977e-01
-1.260125809999999902e+01 3.617000000000000215e-01 -3.617000000000000215e-01
-1.259335809999999967e+01 3.635999999999999788e-01 -3.635999999999999788e-01
-1.258545810000000031e+01 3.654999999999999916e-01 -3.654999999999999916e-01
-1.257745809999999942e+01 3.674000000000000044e-01 -3.674000000000000044e-01
-1.256955810000000007e+01 3.693000000000000171e-01 -3.693000000000000171e-01
-1.256165809999999894e+01 3.711999999999999744e-01 -3.711999999999999744e-01
-1.255365809999999982e+01 3.730999999999999872e-01 -3.730999999999999872e-01
-1.254575810000000047e+01 3.750000000000000000e-01 -3.750000000000000000e-01
-1.253785809999999934e+01 3.770000000000000018e-01 -3.770000000000000018e-01
-1.252985810000000022e+01 3.790000000000000036e-01 -3.790000000000000036e-01
-1.252195809999999909e+01 3.810000000000000053e-01 -3.810000000000000053e-01
-1.251405809999999974e+01 3.830999999999999961e-01 -3.830999999999999961e-01
-1.250605810000000062e+01 3.850999999999999979e-01 -3.850999999999999979e-01
-1.249815809999999949e+01 3.871999999999999886e-01 -3.871999999999999886e-01
-1.249025810000000014e+01 3.891999999999999904e-01 -3.891999999999999904e-01